
.Version 6.10.2 of ABINIT 
.(MPI version, prepared for a x86_64_linux_intel12.0 computer) 

.Copyright (C) 1998-2011 ABINIT group . 
 ABINIT comes with ABSOLUTELY NO WARRANTY.
 It is free software, and you are welcome to redistribute it
 under certain conditions (GNU General Public License,
 see ~abinit/COPYING or http://www.gnu.org/copyleft/gpl.txt).

 ABINIT is a project of the Universite Catholique de Louvain,
 Corning Inc. and other collaborators, see ~abinit/doc/developers/contributors.txt .
 Please read ~abinit/doc/users/acknowledgments.html for suggested
 acknowledgments of the ABINIT effort.
 For more information, see http://www.abinit.org .

.Starting date : Mon  7 Nov 2011.
- ( at 12h50 )
  
- input  file    -> tmoldyn_03.in
- output file    -> tmoldyn_03.out
- root for input  files -> tmoldyn_03_i
- root for output files -> tmoldyn_03_o


 Symmetries : space group P1 (#  1); Bravais aP (primitive triclinic)
================================================================================
 Values of the parameters that define the memory need of the present run
   intxc =         0  ionmov =        12    iscf =         7 xclevel =         1
  lmnmax =         2   lnmax =         2   mband =        80  mffmem =         1
P  mgfft =        20   mkmem =         1 mpssoang=         3     mpw =        55
  mqgrid =      3001   natom =        32    nfft =      4000    nkpt =        14
  nloalg =         4  nspden =         1 nspinor =         1  nsppol =         1
    nsym =         1  n1xccc =      2501  ntypat =         1  occopt =         3
================================================================================
P This job should need less than                       3.842 Mbytes of memory.
  Rough estimation (10% accuracy) of disk space for files :
  WF disk file :      1.882 Mbytes ; DEN or POT disk file :      0.033 Mbytes.
================================================================================

--------------------------------------------------------------------------------
------------- Echo of variables that govern the present computation ------------
--------------------------------------------------------------------------------
-
- outvars: echo of selected default values                                      
-   accesswff0 =  0 , fftalg0 =401 , wfoptalg0 =  0
-
- outvars: echo of global parameters not present in the input file              
-   nproc =  140
-
 -outvars: echo values of preprocessed input variables --------
        accesswff           1
            acell      1.2810000000E+01  1.2810000000E+01  1.2810000000E+01 Bohr
              amu      2.69815390E+01
           bandpp           2
             ecut      3.00000000E+00 Hartree
      fft_opt_lob           2
           ionmov          12
           iprcch           6
           istwfk        0    0    0    0    0    0    0    0    0    0
                         0    0    0    1
              kpt      1.66666667E-01  1.66666667E-01  1.66666667E-01
                       5.00000000E-01  1.66666667E-01  1.66666667E-01
                      -1.66666667E-01  1.66666667E-01  1.66666667E-01
                       1.66666667E-01  5.00000000E-01  1.66666667E-01
                       5.00000000E-01  5.00000000E-01  1.66666667E-01
                      -1.66666667E-01  5.00000000E-01  1.66666667E-01
                       1.66666667E-01 -1.66666667E-01  1.66666667E-01
                       5.00000000E-01 -1.66666667E-01  1.66666667E-01
                      -1.66666667E-01 -1.66666667E-01  1.66666667E-01
                       1.66666667E-01  1.66666667E-01  5.00000000E-01
                       5.00000000E-01  1.66666667E-01  5.00000000E-01
                      -1.66666667E-01  1.66666667E-01  5.00000000E-01
                       1.66666667E-01  5.00000000E-01  5.00000000E-01
                       5.00000000E-01  5.00000000E-01  5.00000000E-01
          kptrlen      3.84300000E+01
         kptrlatt      3  0  0   0  3  0   0  0  3
           mdtemp      3.00000000E+03  3.00000000E+03
P           mkmem           1
            natom          32
            nband          80
            ngfft          20      20      20
             nkpt          14
           npband           5
            npfft           2
            npkpt          14
            nstep          50
             nsym           1
            ntime         100
           ntypat           1
              occ      2.000000  2.000000  2.000000  2.000000  2.000000  2.000000
                       2.000000  2.000000  2.000000  2.000000  2.000000  2.000000
                       2.000000  2.000000  2.000000  2.000000  2.000000  2.000000
                       2.000000  2.000000  2.000000  2.000000  2.000000  2.000000
                       2.000000  2.000000  2.000000  2.000000  2.000000  2.000000
                       2.000000  2.000000  2.000000  2.000000  2.000000  2.000000
                       2.000000  2.000000  2.000000  2.000000  2.000000  2.000000
                       2.000000  2.000000  2.000000  2.000000  2.000000  2.000000
                       0.000000  0.000000  0.000000  0.000000  0.000000  0.000000
                       0.000000  0.000000  0.000000  0.000000  0.000000  0.000000
                       0.000000  0.000000  0.000000  0.000000  0.000000  0.000000
                       0.000000  0.000000  0.000000  0.000000  0.000000  0.000000
                       0.000000  0.000000  0.000000  0.000000  0.000000  0.000000
                       0.000000  0.000000
                       2.000000  2.000000  2.000000  2.000000  2.000000  2.000000
                       2.000000  2.000000  2.000000  2.000000  2.000000  2.000000
                       2.000000  2.000000  2.000000  2.000000  2.000000  2.000000
                       2.000000  2.000000  2.000000  2.000000  2.000000  2.000000
                       2.000000  2.000000  2.000000  2.000000  2.000000  2.000000
                       2.000000  2.000000  2.000000  2.000000  2.000000  2.000000
                       2.000000  2.000000  2.000000  2.000000  2.000000  2.000000
                       2.000000  2.000000  2.000000  2.000000  2.000000  2.000000
                       0.000000  0.000000  0.000000  0.000000  0.000000  0.000000
                       0.000000  0.000000  0.000000  0.000000  0.000000  0.000000
                       0.000000  0.000000  0.000000  0.000000  0.000000  0.000000
                       0.000000  0.000000  0.000000  0.000000  0.000000  0.000000
                       0.000000  0.000000  0.000000  0.000000  0.000000  0.000000
                       0.000000  0.000000
                       2.000000  2.000000  2.000000  2.000000  2.000000  2.000000
                       2.000000  2.000000  2.000000  2.000000  2.000000  2.000000
                       2.000000  2.000000  2.000000  2.000000  2.000000  2.000000
                       2.000000  2.000000  2.000000  2.000000  2.000000  2.000000
                       2.000000  2.000000  2.000000  2.000000  2.000000  2.000000
                       2.000000  2.000000  2.000000  2.000000  2.000000  2.000000
                       2.000000  2.000000  2.000000  2.000000  2.000000  2.000000
                       2.000000  2.000000  2.000000  2.000000  2.000000  2.000000
                       0.000000  0.000000  0.000000  0.000000  0.000000  0.000000
                       0.000000  0.000000  0.000000  0.000000  0.000000  0.000000
                       0.000000  0.000000  0.000000  0.000000  0.000000  0.000000
                       0.000000  0.000000  0.000000  0.000000  0.000000  0.000000
                       0.000000  0.000000  0.000000  0.000000  0.000000  0.000000
                       0.000000  0.000000
                       2.000000  2.000000  2.000000  2.000000  2.000000  2.000000
                       2.000000  2.000000  2.000000  2.000000  2.000000  2.000000
                       2.000000  2.000000  2.000000  2.000000  2.000000  2.000000
                       2.000000  2.000000  2.000000  2.000000  2.000000  2.000000
                       2.000000  2.000000  2.000000  2.000000  2.000000  2.000000
                       2.000000  2.000000  2.000000  2.000000  2.000000  2.000000
                       2.000000  2.000000  2.000000  2.000000  2.000000  2.000000
                       2.000000  2.000000  2.000000  2.000000  2.000000  2.000000
                       0.000000  0.000000  0.000000  0.000000  0.000000  0.000000
                       0.000000  0.000000  0.000000  0.000000  0.000000  0.000000
                       0.000000  0.000000  0.000000  0.000000  0.000000  0.000000
                       0.000000  0.000000  0.000000  0.000000  0.000000  0.000000
                       0.000000  0.000000  0.000000  0.000000  0.000000  0.000000
                       0.000000  0.000000
                       2.000000  2.000000  2.000000  2.000000  2.000000  2.000000
                       2.000000  2.000000  2.000000  2.000000  2.000000  2.000000
                       2.000000  2.000000  2.000000  2.000000  2.000000  2.000000
                       2.000000  2.000000  2.000000  2.000000  2.000000  2.000000
                       2.000000  2.000000  2.000000  2.000000  2.000000  2.000000
                       2.000000  2.000000  2.000000  2.000000  2.000000  2.000000
                       2.000000  2.000000  2.000000  2.000000  2.000000  2.000000
                       2.000000  2.000000  2.000000  2.000000  2.000000  2.000000
                       0.000000  0.000000  0.000000  0.000000  0.000000  0.000000
                       0.000000  0.000000  0.000000  0.000000  0.000000  0.000000
                       0.000000  0.000000  0.000000  0.000000  0.000000  0.000000
                       0.000000  0.000000  0.000000  0.000000  0.000000  0.000000
                       0.000000  0.000000  0.000000  0.000000  0.000000  0.000000
                       0.000000  0.000000
                       2.000000  2.000000  2.000000  2.000000  2.000000  2.000000
                       2.000000  2.000000  2.000000  2.000000  2.000000  2.000000
                       2.000000  2.000000  2.000000  2.000000  2.000000  2.000000
                       2.000000  2.000000  2.000000  2.000000  2.000000  2.000000
                       2.000000  2.000000  2.000000  2.000000  2.000000  2.000000
                       2.000000  2.000000  2.000000  2.000000  2.000000  2.000000
                       2.000000  2.000000  2.000000  2.000000  2.000000  2.000000
                       2.000000  2.000000  2.000000  2.000000  2.000000  2.000000
                       0.000000  0.000000  0.000000  0.000000  0.000000  0.000000
                       0.000000  0.000000  0.000000  0.000000  0.000000  0.000000
                       0.000000  0.000000  0.000000  0.000000  0.000000  0.000000
                       0.000000  0.000000  0.000000  0.000000  0.000000  0.000000
                       0.000000  0.000000  0.000000  0.000000  0.000000  0.000000
                       0.000000  0.000000
                       2.000000  2.000000  2.000000  2.000000  2.000000  2.000000
                       2.000000  2.000000  2.000000  2.000000  2.000000  2.000000
                       2.000000  2.000000  2.000000  2.000000  2.000000  2.000000
                       2.000000  2.000000  2.000000  2.000000  2.000000  2.000000
                       2.000000  2.000000  2.000000  2.000000  2.000000  2.000000
                       2.000000  2.000000  2.000000  2.000000  2.000000  2.000000
                       2.000000  2.000000  2.000000  2.000000  2.000000  2.000000
                       2.000000  2.000000  2.000000  2.000000  2.000000  2.000000
                       0.000000  0.000000  0.000000  0.000000  0.000000  0.000000
                       0.000000  0.000000  0.000000  0.000000  0.000000  0.000000
                       0.000000  0.000000  0.000000  0.000000  0.000000  0.000000
                       0.000000  0.000000  0.000000  0.000000  0.000000  0.000000
                       0.000000  0.000000  0.000000  0.000000  0.000000  0.000000
                       0.000000  0.000000
                       2.000000  2.000000  2.000000  2.000000  2.000000  2.000000
                       2.000000  2.000000  2.000000  2.000000  2.000000  2.000000
                       2.000000  2.000000  2.000000  2.000000  2.000000  2.000000
                       2.000000  2.000000  2.000000  2.000000  2.000000  2.000000
                       2.000000  2.000000  2.000000  2.000000  2.000000  2.000000
                       2.000000  2.000000  2.000000  2.000000  2.000000  2.000000
                       2.000000  2.000000  2.000000  2.000000  2.000000  2.000000
                       2.000000  2.000000  2.000000  2.000000  2.000000  2.000000
                       0.000000  0.000000  0.000000  0.000000  0.000000  0.000000
                       0.000000  0.000000  0.000000  0.000000  0.000000  0.000000
                       0.000000  0.000000  0.000000  0.000000  0.000000  0.000000
                       0.000000  0.000000  0.000000  0.000000  0.000000  0.000000
                       0.000000  0.000000  0.000000  0.000000  0.000000  0.000000
                       0.000000  0.000000
                       2.000000  2.000000  2.000000  2.000000  2.000000  2.000000
                       2.000000  2.000000  2.000000  2.000000  2.000000  2.000000
                       2.000000  2.000000  2.000000  2.000000  2.000000  2.000000
                       2.000000  2.000000  2.000000  2.000000  2.000000  2.000000
                       2.000000  2.000000  2.000000  2.000000  2.000000  2.000000
                       2.000000  2.000000  2.000000  2.000000  2.000000  2.000000
                       2.000000  2.000000  2.000000  2.000000  2.000000  2.000000
                       2.000000  2.000000  2.000000  2.000000  2.000000  2.000000
                       0.000000  0.000000  0.000000  0.000000  0.000000  0.000000
                       0.000000  0.000000  0.000000  0.000000  0.000000  0.000000
                       0.000000  0.000000  0.000000  0.000000  0.000000  0.000000
                       0.000000  0.000000  0.000000  0.000000  0.000000  0.000000
                       0.000000  0.000000  0.000000  0.000000  0.000000  0.000000
                       0.000000  0.000000
                       2.000000  2.000000  2.000000  2.000000  2.000000  2.000000
                       2.000000  2.000000  2.000000  2.000000  2.000000  2.000000
                       2.000000  2.000000  2.000000  2.000000  2.000000  2.000000
                       2.000000  2.000000  2.000000  2.000000  2.000000  2.000000
                       2.000000  2.000000  2.000000  2.000000  2.000000  2.000000
                       2.000000  2.000000  2.000000  2.000000  2.000000  2.000000
                       2.000000  2.000000  2.000000  2.000000  2.000000  2.000000
                       2.000000  2.000000  2.000000  2.000000  2.000000  2.000000
                       0.000000  0.000000  0.000000  0.000000  0.000000  0.000000
                       0.000000  0.000000  0.000000  0.000000  0.000000  0.000000
                       0.000000  0.000000  0.000000  0.000000  0.000000  0.000000
                       0.000000  0.000000  0.000000  0.000000  0.000000  0.000000
                       0.000000  0.000000  0.000000  0.000000  0.000000  0.000000
                       0.000000  0.000000
                       2.000000  2.000000  2.000000  2.000000  2.000000  2.000000
                       2.000000  2.000000  2.000000  2.000000  2.000000  2.000000
                       2.000000  2.000000  2.000000  2.000000  2.000000  2.000000
                       2.000000  2.000000  2.000000  2.000000  2.000000  2.000000
                       2.000000  2.000000  2.000000  2.000000  2.000000  2.000000
                       2.000000  2.000000  2.000000  2.000000  2.000000  2.000000
                       2.000000  2.000000  2.000000  2.000000  2.000000  2.000000
                       2.000000  2.000000  2.000000  2.000000  2.000000  2.000000
                       0.000000  0.000000  0.000000  0.000000  0.000000  0.000000
                       0.000000  0.000000  0.000000  0.000000  0.000000  0.000000
                       0.000000  0.000000  0.000000  0.000000  0.000000  0.000000
                       0.000000  0.000000  0.000000  0.000000  0.000000  0.000000
                       0.000000  0.000000  0.000000  0.000000  0.000000  0.000000
                       0.000000  0.000000
                       2.000000  2.000000  2.000000  2.000000  2.000000  2.000000
                       2.000000  2.000000  2.000000  2.000000  2.000000  2.000000
                       2.000000  2.000000  2.000000  2.000000  2.000000  2.000000
                       2.000000  2.000000  2.000000  2.000000  2.000000  2.000000
                       2.000000  2.000000  2.000000  2.000000  2.000000  2.000000
                       2.000000  2.000000  2.000000  2.000000  2.000000  2.000000
                       2.000000  2.000000  2.000000  2.000000  2.000000  2.000000
                       2.000000  2.000000  2.000000  2.000000  2.000000  2.000000
                       0.000000  0.000000  0.000000  0.000000  0.000000  0.000000
                       0.000000  0.000000  0.000000  0.000000  0.000000  0.000000
                       0.000000  0.000000  0.000000  0.000000  0.000000  0.000000
                       0.000000  0.000000  0.000000  0.000000  0.000000  0.000000
                       0.000000  0.000000  0.000000  0.000000  0.000000  0.000000
                       0.000000  0.000000
                       2.000000  2.000000  2.000000  2.000000  2.000000  2.000000
                       2.000000  2.000000  2.000000  2.000000  2.000000  2.000000
                       2.000000  2.000000  2.000000  2.000000  2.000000  2.000000
                       2.000000  2.000000  2.000000  2.000000  2.000000  2.000000
                       2.000000  2.000000  2.000000  2.000000  2.000000  2.000000
                       2.000000  2.000000  2.000000  2.000000  2.000000  2.000000
                       2.000000  2.000000  2.000000  2.000000  2.000000  2.000000
                       2.000000  2.000000  2.000000  2.000000  2.000000  2.000000
                       0.000000  0.000000  0.000000  0.000000  0.000000  0.000000
                       0.000000  0.000000  0.000000  0.000000  0.000000  0.000000
                       0.000000  0.000000  0.000000  0.000000  0.000000  0.000000
                       0.000000  0.000000  0.000000  0.000000  0.000000  0.000000
                       0.000000  0.000000  0.000000  0.000000  0.000000  0.000000
                       0.000000  0.000000
                       2.000000  2.000000  2.000000  2.000000  2.000000  2.000000
                       2.000000  2.000000  2.000000  2.000000  2.000000  2.000000
                       2.000000  2.000000  2.000000  2.000000  2.000000  2.000000
                       2.000000  2.000000  2.000000  2.000000  2.000000  2.000000
                       2.000000  2.000000  2.000000  2.000000  2.000000  2.000000
                       2.000000  2.000000  2.000000  2.000000  2.000000  2.000000
                       2.000000  2.000000  2.000000  2.000000  2.000000  2.000000
                       2.000000  2.000000  2.000000  2.000000  2.000000  2.000000
                       0.000000  0.000000  0.000000  0.000000  0.000000  0.000000
                       0.000000  0.000000  0.000000  0.000000  0.000000  0.000000
                       0.000000  0.000000  0.000000  0.000000  0.000000  0.000000
                       0.000000  0.000000  0.000000  0.000000  0.000000  0.000000
                       0.000000  0.000000  0.000000  0.000000  0.000000  0.000000
                       0.000000  0.000000
           occopt           3
           ortalg          -2
        paral_kgb           1
           prtden           0
           prteig           0
            prtwf           0
           shiftk      5.00000000E-01  5.00000000E-01  5.00000000E-01
          spgroup           1
           tolvrs      1.00000000E-03
           tsmear      9.50044600E-03 Hartree
            typat      1  1  1  1  1  1  1  1  1  1  1  1  1  1  1  1  1  1  1  1
                       1  1  1  1  1  1  1  1  1  1  1  1
         wfoptalg          14
              wtk        0.07407    0.07407    0.07407    0.07407    0.07407    0.07407
                         0.07407    0.07407    0.07407    0.07407    0.07407    0.07407
                         0.07407    0.03704
           xangst      0.0000000000E+00  0.0000000000E+00  0.0000000000E+00
                       0.0000000000E+00  1.6946900105E+00  1.6946900105E+00
                       1.6946900105E+00  0.0000000000E+00  1.6946900105E+00
                       1.6946900105E+00  1.6946900105E+00  0.0000000000E+00
                       0.0000000000E+00  0.0000000000E+00  3.3893800210E+00
                       0.0000000000E+00  1.6946900105E+00  5.0840700315E+00
                       1.6946900105E+00  0.0000000000E+00  5.0840700315E+00
                       1.6946900105E+00  1.6946900105E+00  3.3893800210E+00
                       0.0000000000E+00  3.3893800210E+00  0.0000000000E+00
                       0.0000000000E+00  5.0840700315E+00  1.6946900105E+00
                       1.6946900105E+00  3.3893800210E+00  1.6946900105E+00
                       1.6946900105E+00  5.0840700315E+00  0.0000000000E+00
                       0.0000000000E+00  3.3893800210E+00  3.3893800210E+00
                       0.0000000000E+00  5.0840700315E+00  5.0840700315E+00
                       1.6946900105E+00  3.3893800210E+00  5.0840700315E+00
                       1.6946900105E+00  5.0840700315E+00  3.3893800210E+00
                       3.3893800210E+00  0.0000000000E+00  0.0000000000E+00
                       3.3893800210E+00  1.6946900105E+00  1.6946900105E+00
                       5.0840700315E+00  0.0000000000E+00  1.6946900105E+00
                       5.0840700315E+00  1.6946900105E+00  0.0000000000E+00
                       3.3893800210E+00  0.0000000000E+00  3.3893800210E+00
                       3.3893800210E+00  1.6946900105E+00  5.0840700315E+00
                       5.0840700315E+00  0.0000000000E+00  5.0840700315E+00
                       5.0840700315E+00  1.6946900105E+00  3.3893800210E+00
                       3.3893800210E+00  3.3893800210E+00  0.0000000000E+00
                       3.3893800210E+00  5.0840700315E+00  1.6946900105E+00
                       5.0840700315E+00  3.3893800210E+00  1.6946900105E+00
                       5.0840700315E+00  5.0840700315E+00  0.0000000000E+00
                       3.3893800210E+00  3.3893800210E+00  3.3893800210E+00
                       3.3893800210E+00  5.0840700315E+00  5.0840700315E+00
                       5.0840700315E+00  3.3893800210E+00  5.0840700315E+00
                       5.0840700315E+00  5.0840700315E+00  3.3893800210E+00
            xcart      0.0000000000E+00  0.0000000000E+00  0.0000000000E+00
                       0.0000000000E+00  3.2025000000E+00  3.2025000000E+00
                       3.2025000000E+00  0.0000000000E+00  3.2025000000E+00
                       3.2025000000E+00  3.2025000000E+00  0.0000000000E+00
                       0.0000000000E+00  0.0000000000E+00  6.4050000000E+00
                       0.0000000000E+00  3.2025000000E+00  9.6075000000E+00
                       3.2025000000E+00  0.0000000000E+00  9.6075000000E+00
                       3.2025000000E+00  3.2025000000E+00  6.4050000000E+00
                       0.0000000000E+00  6.4050000000E+00  0.0000000000E+00
                       0.0000000000E+00  9.6075000000E+00  3.2025000000E+00
                       3.2025000000E+00  6.4050000000E+00  3.2025000000E+00
                       3.2025000000E+00  9.6075000000E+00  0.0000000000E+00
                       0.0000000000E+00  6.4050000000E+00  6.4050000000E+00
                       0.0000000000E+00  9.6075000000E+00  9.6075000000E+00
                       3.2025000000E+00  6.4050000000E+00  9.6075000000E+00
                       3.2025000000E+00  9.6075000000E+00  6.4050000000E+00
                       6.4050000000E+00  0.0000000000E+00  0.0000000000E+00
                       6.4050000000E+00  3.2025000000E+00  3.2025000000E+00
                       9.6075000000E+00  0.0000000000E+00  3.2025000000E+00
                       9.6075000000E+00  3.2025000000E+00  0.0000000000E+00
                       6.4050000000E+00  0.0000000000E+00  6.4050000000E+00
                       6.4050000000E+00  3.2025000000E+00  9.6075000000E+00
                       9.6075000000E+00  0.0000000000E+00  9.6075000000E+00
                       9.6075000000E+00  3.2025000000E+00  6.4050000000E+00
                       6.4050000000E+00  6.4050000000E+00  0.0000000000E+00
                       6.4050000000E+00  9.6075000000E+00  3.2025000000E+00
                       9.6075000000E+00  6.4050000000E+00  3.2025000000E+00
                       9.6075000000E+00  9.6075000000E+00  0.0000000000E+00
                       6.4050000000E+00  6.4050000000E+00  6.4050000000E+00
                       6.4050000000E+00  9.6075000000E+00  9.6075000000E+00
                       9.6075000000E+00  6.4050000000E+00  9.6075000000E+00
                       9.6075000000E+00  9.6075000000E+00  6.4050000000E+00
             xred      0.0000000000E+00  0.0000000000E+00  0.0000000000E+00
                       0.0000000000E+00  2.5000000000E-01  2.5000000000E-01
                       2.5000000000E-01  0.0000000000E+00  2.5000000000E-01
                       2.5000000000E-01  2.5000000000E-01  0.0000000000E+00
                       0.0000000000E+00  0.0000000000E+00  5.0000000000E-01
                       0.0000000000E+00  2.5000000000E-01  7.5000000000E-01
                       2.5000000000E-01  0.0000000000E+00  7.5000000000E-01
                       2.5000000000E-01  2.5000000000E-01  5.0000000000E-01
                       0.0000000000E+00  5.0000000000E-01  0.0000000000E+00
                       0.0000000000E+00  7.5000000000E-01  2.5000000000E-01
                       2.5000000000E-01  5.0000000000E-01  2.5000000000E-01
                       2.5000000000E-01  7.5000000000E-01  0.0000000000E+00
                       0.0000000000E+00  5.0000000000E-01  5.0000000000E-01
                       0.0000000000E+00  7.5000000000E-01  7.5000000000E-01
                       2.5000000000E-01  5.0000000000E-01  7.5000000000E-01
                       2.5000000000E-01  7.5000000000E-01  5.0000000000E-01
                       5.0000000000E-01  0.0000000000E+00  0.0000000000E+00
                       5.0000000000E-01  2.5000000000E-01  2.5000000000E-01
                       7.5000000000E-01  0.0000000000E+00  2.5000000000E-01
                       7.5000000000E-01  2.5000000000E-01  0.0000000000E+00
                       5.0000000000E-01  0.0000000000E+00  5.0000000000E-01
                       5.0000000000E-01  2.5000000000E-01  7.5000000000E-01
                       7.5000000000E-01  0.0000000000E+00  7.5000000000E-01
                       7.5000000000E-01  2.5000000000E-01  5.0000000000E-01
                       5.0000000000E-01  5.0000000000E-01  0.0000000000E+00
                       5.0000000000E-01  7.5000000000E-01  2.5000000000E-01
                       7.5000000000E-01  5.0000000000E-01  2.5000000000E-01
                       7.5000000000E-01  7.5000000000E-01  0.0000000000E+00
                       5.0000000000E-01  5.0000000000E-01  5.0000000000E-01
                       5.0000000000E-01  7.5000000000E-01  7.5000000000E-01
                       7.5000000000E-01  5.0000000000E-01  7.5000000000E-01
                       7.5000000000E-01  7.5000000000E-01  5.0000000000E-01
            znucl       13.00000

================================================================================

 chkinp: Checking input parameters for consistency.

================================================================================
== DATASET  1 ==================================================================

 Exchange-correlation functional for the present dataset will be:
  LDA: new Teter (4/93) with spin-polarized option - ixc=1
 Citation for XC functional:
  S. Goedecker, M. Teter, J. Huetter, PRB 54, 1703 (1996)
 
 Real(R)+Recip(G) space primitive vectors, cartesian coordinates (Bohr,Bohr^-1):
 R(1)= 12.8100000  0.0000000  0.0000000  G(1)=  0.0780640  0.0000000  0.0000000
 R(2)=  0.0000000 12.8100000  0.0000000  G(2)=  0.0000000  0.0780640  0.0000000
 R(3)=  0.0000000  0.0000000 12.8100000  G(3)=  0.0000000  0.0000000  0.0780640
 Unit cell volume ucvol=  2.1020710E+03 bohr^3
 Angles (23,13,12)=  9.00000000E+01  9.00000000E+01  9.00000000E+01 degrees

 getcut: wavevector=  0.0000  0.0000  0.0000  ngfft=  20  20  20
         ecut(hartree)=      3.000   => boxcut(ratio)=   2.00242

--- Pseudopotential description ------------------------------------------------
- pspini: atom type   1  psp file is ../13al.pspnc
- pspatm: opening atomic psp file    ../13al.pspnc
  Troullier-Martins psp for element  Al        Thu Oct 27 17:31:05 EDT 1994
- 13.00000   3.00000    940714                znucl, zion, pspdat
    1    1    2    2      2001   0.00000      pspcod,pspxc,lmax,lloc,mmax,r2well
    0   4.657  11.889    1   2.2761078        l,e99.0,e99.9,nproj,rcpsp
   0.00000000   0.00000000   0.00000000   0.00000000     rms, ekb1, ekb2, epsatm
    1   1.829   2.761    1   2.2761078        l,e99.0,e99.9,nproj,rcpsp
   0.00000000   0.00000000   0.00000000   0.00000000     rms, ekb1, ekb2, epsatm
    2   0.000   0.000    0   2.2761078        l,e99.0,e99.9,nproj,rcpsp
   0.00000000   0.00000000   0.00000000   0.00000000     rms, ekb1, ekb2, epsatm
    2.09673076353074    0.12648111154518    1.01742091001718   rchrg,fchrg,qchrg
 pspatm: epsatm=    0.22155260
         --- l  ekb(1:nproj) -->
             0    2.540658
             1    1.353815
 pspatm: atomic psp has been read  and splines computed

   6.80609581E+02                                ecore*ucvol(ha*bohr**3)
--------------------------------------------------------------------------------

P newkpt: treating     80 bands with npw=      53 for ikpt=   1 by node    0
P newkpt: treating     80 bands with npw=      52 for ikpt=   2 by node    1
P newkpt: treating     80 bands with npw=      53 for ikpt=   3 by node    2
P newkpt: treating     80 bands with npw=      51 for ikpt=   4 by node    3
P newkpt: treating     80 bands with npw=      52 for ikpt=   5 by node    4
P newkpt: treating     80 bands with npw=      51 for ikpt=   6 by node    5
P newkpt: treating     80 bands with npw=      53 for ikpt=   7 by node    6
P newkpt: treating     80 bands with npw=      52 for ikpt=   8 by node    7
P newkpt: treating     80 bands with npw=      53 for ikpt=   9 by node    8
P newkpt: treating     80 bands with npw=      52 for ikpt=  10 by node    9
P newkpt: treating     80 bands with npw=      52 for ikpt=  11 by node   10
P newkpt: treating     80 bands with npw=      52 for ikpt=  12 by node   11
P newkpt: treating     80 bands with npw=      52 for ikpt=  13 by node   12
P newkpt: treating     80 bands with npw=      55 for ikpt=  14 by node   13
 
 setup2: Arith. and geom. avg. npw (full set) are      52.259      52.253

================================================================================

=== [ionmov=12] Isokinetic ensemble molecular dynamics                      
================================================================================

--- Iteration: (  1/100) Internal Cycle: (1/1)
--------------------------------------------------------------------------------

---SELF-CONSISTENT-FIELD CONVERGENCE--------------------------------------------

     iter   Etot(hartree)      deltaE(h)  residm     vres2
 ETOT  1  -75.534822123285    -7.553E+01 1.616E-03 5.173E+00
 ETOT  2  -75.550659709132    -1.584E-02 6.879E-04 1.506E-01
 ETOT  3  -75.551214956956    -5.552E-04 7.686E-05 5.055E-05

 At SCF step    3       vres2   =  5.05E-05 < tolvrs=  1.00E-03 =>converged.

 Cartesian components of stress tensor (hartree/bohr^3)
  sigma(1 1)= -3.77634607E-03  sigma(3 2)= -1.49450115E-09
  sigma(2 2)= -3.77634360E-03  sigma(3 1)= -6.41845094E-10
  sigma(3 3)= -3.77634430E-03  sigma(2 1)= -8.31376097E-10
 

---OUTPUT-----------------------------------------------------------------------

 Cartesian coordinates (xcart) [bohr]
  0.00000000000000E+00  0.00000000000000E+00  0.00000000000000E+00
  0.00000000000000E+00  3.20250000000000E+00  3.20250000000000E+00
  3.20250000000000E+00  0.00000000000000E+00  3.20250000000000E+00
  3.20250000000000E+00  3.20250000000000E+00  0.00000000000000E+00
  0.00000000000000E+00  0.00000000000000E+00  6.40500000000000E+00
  0.00000000000000E+00  3.20250000000000E+00  9.60750000000000E+00
  3.20250000000000E+00  0.00000000000000E+00  9.60750000000000E+00
  3.20250000000000E+00  3.20250000000000E+00  6.40500000000000E+00
  0.00000000000000E+00  6.40500000000000E+00  0.00000000000000E+00
  0.00000000000000E+00  9.60750000000000E+00  3.20250000000000E+00
  3.20250000000000E+00  6.40500000000000E+00  3.20250000000000E+00
  3.20250000000000E+00  9.60750000000000E+00  0.00000000000000E+00
  0.00000000000000E+00  6.40500000000000E+00  6.40500000000000E+00
  0.00000000000000E+00  9.60750000000000E+00  9.60750000000000E+00
  3.20250000000000E+00  6.40500000000000E+00  9.60750000000000E+00
  3.20250000000000E+00  9.60750000000000E+00  6.40500000000000E+00
  6.40500000000000E+00  0.00000000000000E+00  0.00000000000000E+00
  6.40500000000000E+00  3.20250000000000E+00  3.20250000000000E+00
  9.60750000000000E+00  0.00000000000000E+00  3.20250000000000E+00
  9.60750000000000E+00  3.20250000000000E+00  0.00000000000000E+00
  6.40500000000000E+00  0.00000000000000E+00  6.40500000000000E+00
  6.40500000000000E+00  3.20250000000000E+00  9.60750000000000E+00
  9.60750000000000E+00  0.00000000000000E+00  9.60750000000000E+00
  9.60750000000000E+00  3.20250000000000E+00  6.40500000000000E+00
  6.40500000000000E+00  6.40500000000000E+00  0.00000000000000E+00
  6.40500000000000E+00  9.60750000000000E+00  3.20250000000000E+00
  9.60750000000000E+00  6.40500000000000E+00  3.20250000000000E+00
  9.60750000000000E+00  9.60750000000000E+00  0.00000000000000E+00
  6.40500000000000E+00  6.40500000000000E+00  6.40500000000000E+00
  6.40500000000000E+00  9.60750000000000E+00  9.60750000000000E+00
  9.60750000000000E+00  6.40500000000000E+00  9.60750000000000E+00
  9.60750000000000E+00  9.60750000000000E+00  6.40500000000000E+00
 Reduced coordinates (xred)
  0.00000000000000E+00  0.00000000000000E+00  0.00000000000000E+00
  0.00000000000000E+00  2.50000000000000E-01  2.50000000000000E-01
  2.50000000000000E-01  0.00000000000000E+00  2.50000000000000E-01
  2.50000000000000E-01  2.50000000000000E-01  0.00000000000000E+00
  0.00000000000000E+00  0.00000000000000E+00  5.00000000000000E-01
  0.00000000000000E+00  2.50000000000000E-01  7.50000000000000E-01
  2.50000000000000E-01  0.00000000000000E+00  7.50000000000000E-01
  2.50000000000000E-01  2.50000000000000E-01  5.00000000000000E-01
  0.00000000000000E+00  5.00000000000000E-01  0.00000000000000E+00
  0.00000000000000E+00  7.50000000000000E-01  2.50000000000000E-01
  2.50000000000000E-01  5.00000000000000E-01  2.50000000000000E-01
  2.50000000000000E-01  7.50000000000000E-01  0.00000000000000E+00
  0.00000000000000E+00  5.00000000000000E-01  5.00000000000000E-01
  0.00000000000000E+00  7.50000000000000E-01  7.50000000000000E-01
  2.50000000000000E-01  5.00000000000000E-01  7.50000000000000E-01
  2.50000000000000E-01  7.50000000000000E-01  5.00000000000000E-01
  5.00000000000000E-01  0.00000000000000E+00  0.00000000000000E+00
  5.00000000000000E-01  2.50000000000000E-01  2.50000000000000E-01
  7.50000000000000E-01  0.00000000000000E+00  2.50000000000000E-01
  7.50000000000000E-01  2.50000000000000E-01  0.00000000000000E+00
  5.00000000000000E-01  0.00000000000000E+00  5.00000000000000E-01
  5.00000000000000E-01  2.50000000000000E-01  7.50000000000000E-01
  7.50000000000000E-01  0.00000000000000E+00  7.50000000000000E-01
  7.50000000000000E-01  2.50000000000000E-01  5.00000000000000E-01
  5.00000000000000E-01  5.00000000000000E-01  0.00000000000000E+00
  5.00000000000000E-01  7.50000000000000E-01  2.50000000000000E-01
  7.50000000000000E-01  5.00000000000000E-01  2.50000000000000E-01
  7.50000000000000E-01  7.50000000000000E-01  0.00000000000000E+00
  5.00000000000000E-01  5.00000000000000E-01  5.00000000000000E-01
  5.00000000000000E-01  7.50000000000000E-01  7.50000000000000E-01
  7.50000000000000E-01  5.00000000000000E-01  7.50000000000000E-01
  7.50000000000000E-01  7.50000000000000E-01  5.00000000000000E-01
 Cartesian forces (fcart) [Ha/bohr]; max,rms= 1.06812E-05 3.60624E-06 (free atoms)
  7.56855904021051E-07  9.73949159938325E-06  2.29550314624223E-06
  2.13062784326615E-06 -1.46766767934511E-06 -1.06811908235592E-05
 -9.44309431437341E-07  3.23591114132090E-06 -6.08907912773685E-06
 -1.65559906922059E-06 -3.76961600482220E-06  1.62916583743036E-06
  2.42724048944989E-06 -6.03989100026334E-07 -1.93996006322837E-06
 -1.64830168323452E-06 -1.37645472831330E-07  7.63258744414838E-06
  6.64046232408096E-07  1.33943874383351E-06  4.93791603907709E-06
  4.59043191492158E-07  9.22332337508082E-07 -8.23537134174287E-07
  1.23441179253911E-06 -8.00755044097814E-06  1.78636551225803E-06
  4.20291482582197E-06  2.82708265464248E-06 -1.43459406391295E-06
 -2.37068370996282E-06 -3.91136503773678E-06 -3.95240555584051E-06
  6.98763226806735E-07  1.70571858667792E-06 -1.97619610035499E-09
  2.89089089760490E-06 -3.34381861425634E-06  9.84166436163598E-07
  4.64792837213364E-06  1.07789531259400E-06  1.38372150248263E-06
  1.56127124249441E-06 -1.94077405342674E-06  2.92464318856143E-06
 -1.55765907770892E-06  2.44647761426271E-06  1.34547618267878E-06
 -2.08308029775682E-06  6.86788653102258E-06  1.29639687256045E-06
 -2.20483916843892E-06 -2.65351647673996E-06 -7.41090953142820E-06
  1.23673411489924E-06  4.67311661323111E-06 -7.02385096946396E-06
  2.09541251669010E-06 -2.71781572897138E-06 -9.89938517598293E-07
 -2.01301395493768E-06  1.01200064246617E-06  2.59569729259910E-07
  1.65209478195827E-06  1.92262140676316E-06  6.04262018457211E-06
 -1.27551901347942E-07  7.09098023424762E-06  6.31575567342545E-06
 -8.19623249529492E-07  1.38306019058681E-06  4.48251818064929E-06
 -3.48329244585331E-08 -5.31278267935739E-06 -2.70063187836545E-06
 -2.86723409809120E-06  2.63669536192091E-06 -3.76938093092169E-06
  6.07426999604537E-07 -5.54189885618780E-06 -6.40887230011951E-06
 -9.11697390792598E-07  1.46838070060819E-06  3.19612460167041E-07
 -8.26211311021991E-07 -3.71964970375194E-06  4.03734471121245E-06
 -3.90590472827743E-06 -7.55081668036849E-07  2.10747359597450E-06
 -3.06109000405406E-06 -8.47298563473213E-06  3.15333561073567E-06
 -2.34030430919440E-07  2.00706748013101E-06  2.92154784850190E-07
 Reduced forces (fred)
 -1.01467818018281E-05 -1.25143989918075E-04 -2.90407594159797E-05
 -2.77448003435579E-05  1.84197204424353E-05  1.37190690337176E-04
  1.16451461453939E-05 -4.18331242502963E-05  7.83657395136923E-05
  2.07567664053973E-05  4.79076784917969E-05 -2.05049784900996E-05
 -3.15444083411716E-05  7.35599784136177E-06  2.52155242973387E-05
  2.06632868909158E-05  1.38213597699378E-06 -9.74088092721575E-05
 -8.95788990846618E-06 -1.75393128384829E-05 -6.28900685731942E-05
 -6.33180095433301E-06 -1.21961797734541E-05  1.09141465761559E-05
 -1.62642727337445E-05  1.02195618618954E-04 -2.25187063246422E-05
 -5.42907965900979E-05 -3.65960313359457E-05  1.87417858461081E-05
  2.99170006533052E-05  4.97234836034325E-05  5.09949510577002E-05
 -9.40261460671274E-06 -2.22313576253197E-05  3.89950959428806E-07
 -3.74837700696372E-05  4.24532139186482E-05 -1.22425361598724E-05
 -5.99914201183504E-05 -1.41889414843047E-05 -1.73608365594192E-05
 -2.04513422876719E-05  2.44802130944210E-05 -3.71000433580886E-05
  1.95021551141328E-05 -3.17204807686809E-05 -1.68709140127319E-05
  2.62328009429464E-05 -8.83587289923748E-05 -1.62422080501162E-05
  2.77925320763841E-05  3.36104435370633E-05  9.52983869849785E-05
 -1.62940216831778E-05 -6.02437263454661E-05  9.03401668062166E-05
 -2.72936920101187E-05  3.44341169581478E-05  1.30457482978174E-05
  2.53352510914332E-05 -1.33448307599672E-05 -2.96045234443619E-06
 -2.16147918282039E-05 -2.50098827506117E-05 -7.70413286769855E-05
  1.18248218494867E-06 -9.12165593306875E-05 -8.05401942891967E-05
  1.00479161551543E-05 -1.80981035713926E-05 -5.70564220067341E-05
 -5.24790900465573E-09  6.76756435925926E-05  3.49597302492447E-05
  3.62778111252298E-05 -3.41571701161825E-05  4.86504056124901E-05
 -8.23259753625258E-06  7.06106218177901E-05  8.24622900519142E-05
  1.12273859047347E-05 -1.91910593047664E-05 -3.72959972735654E-06
  1.01323092228732E-05  4.72676101750868E-05 -5.13537498632482E-05
  4.95831818979154E-05  9.29149363757647E-06 -2.66321008770501E-05
  3.87611052806140E-05  1.08157843450943E-04 -4.00295932861407E-05
  2.54647214875956E-06 -2.60916369504537E-05 -3.37786690654768E-06
 Cartesian velocities (vel) [bohr*Ha/hbar]; max,rms= 0.00000E+00 0.00000E+00 (free atoms)
  0.00000000000000E+00  0.00000000000000E+00  0.00000000000000E+00
  0.00000000000000E+00  0.00000000000000E+00  0.00000000000000E+00
  0.00000000000000E+00  0.00000000000000E+00  0.00000000000000E+00
  0.00000000000000E+00  0.00000000000000E+00  0.00000000000000E+00
  0.00000000000000E+00  0.00000000000000E+00  0.00000000000000E+00
  0.00000000000000E+00  0.00000000000000E+00  0.00000000000000E+00
  0.00000000000000E+00  0.00000000000000E+00  0.00000000000000E+00
  0.00000000000000E+00  0.00000000000000E+00  0.00000000000000E+00
  0.00000000000000E+00  0.00000000000000E+00  0.00000000000000E+00
  0.00000000000000E+00  0.00000000000000E+00  0.00000000000000E+00
  0.00000000000000E+00  0.00000000000000E+00  0.00000000000000E+00
  0.00000000000000E+00  0.00000000000000E+00  0.00000000000000E+00
  0.00000000000000E+00  0.00000000000000E+00  0.00000000000000E+00
  0.00000000000000E+00  0.00000000000000E+00  0.00000000000000E+00
  0.00000000000000E+00  0.00000000000000E+00  0.00000000000000E+00
  0.00000000000000E+00  0.00000000000000E+00  0.00000000000000E+00
  0.00000000000000E+00  0.00000000000000E+00  0.00000000000000E+00
  0.00000000000000E+00  0.00000000000000E+00  0.00000000000000E+00
  0.00000000000000E+00  0.00000000000000E+00  0.00000000000000E+00
  0.00000000000000E+00  0.00000000000000E+00  0.00000000000000E+00
  0.00000000000000E+00  0.00000000000000E+00  0.00000000000000E+00
  0.00000000000000E+00  0.00000000000000E+00  0.00000000000000E+00
  0.00000000000000E+00  0.00000000000000E+00  0.00000000000000E+00
  0.00000000000000E+00  0.00000000000000E+00  0.00000000000000E+00
  0.00000000000000E+00  0.00000000000000E+00  0.00000000000000E+00
  0.00000000000000E+00  0.00000000000000E+00  0.00000000000000E+00
  0.00000000000000E+00  0.00000000000000E+00  0.00000000000000E+00
  0.00000000000000E+00  0.00000000000000E+00  0.00000000000000E+00
  0.00000000000000E+00  0.00000000000000E+00  0.00000000000000E+00
  0.00000000000000E+00  0.00000000000000E+00  0.00000000000000E+00
  0.00000000000000E+00  0.00000000000000E+00  0.00000000000000E+00
  0.00000000000000E+00  0.00000000000000E+00  0.00000000000000E+00
 Kinetic energy of ions (ekin) [Ha]=  0.00000000000000E+00
 Total energy (etotal) [Ha]= -7.55512149569558E+01

--- Iteration: (  2/100) Internal Cycle: (1/1)
--------------------------------------------------------------------------------

---SELF-CONSISTENT-FIELD CONVERGENCE--------------------------------------------

     iter   Etot(hartree)      deltaE(h)  residm     vres2
 ETOT  1  -75.517077527303    -7.552E+01 1.651E-04 3.937E+00
 ETOT  2  -75.526437741005    -9.360E-03 3.786E-05 1.035E+00
 ETOT  3  -75.528888630606    -2.451E-03 1.436E-05 1.330E-02
 ETOT  4  -75.528961968099    -7.334E-05 7.697E-06 5.518E-05

 At SCF step    4       vres2   =  5.52E-05 < tolvrs=  1.00E-03 =>converged.

 Cartesian components of stress tensor (hartree/bohr^3)
  sigma(1 1)= -3.79903592E-03  sigma(3 2)= -1.64704872E-06
  sigma(2 2)= -3.79656220E-03  sigma(3 1)=  5.67301055E-07
  sigma(3 3)= -3.79654024E-03  sigma(2 1)=  2.13415225E-06
 

---OUTPUT-----------------------------------------------------------------------

 Cartesian coordinates (xcart) [bohr]
  2.07814343936661E-02 -3.18667880556612E-02  2.33996502387138E-02
  4.66023892119404E-02  3.18801932070769E+00  3.25209699814210E+00
  3.27756663306181E+00 -2.02432449077003E-03  3.22247467391192E+00
  3.21301757723228E+00  3.23133160062367E+00  1.49863931247034E-02
  3.86696026211056E-02 -1.21448844881098E-01  6.41883344483670E+00
  9.24016767881897E-03  3.08790458737389E+00  9.58432214061832E+00
  3.22283881267242E+00  1.03255538792617E-01  9.65158783421236E+00
  3.22191808625872E+00  3.18056551733874E+00  6.45397852868860E+00
 -7.17690506784710E-03  6.42888426667088E+00  3.91370504251706E-02
 -5.75327248311839E-03  9.62056335764671E+00  3.18032578227200E+00
  3.19121083651398E+00  6.37280975355320E+00  3.20512691989708E+00
  3.26859725762687E+00  9.49753902885121E+00 -5.43902021529756E-02
 -1.77684923133996E-02  6.45076260463616E+00  6.35026811197262E+00
  3.08823173534282E-02  9.62324455877337E+00  9.64520331180242E+00
  3.20294768307427E+00  6.49227314521780E+00  9.61830898810749E+00
  3.21981200668490E+00  9.63016643740773E+00  6.35525775241099E+00
  6.39411052030837E+00  5.25268651185126E-02  6.00492827392760E-02
  6.39306078792626E+00  3.18166067337593E+00  3.21337730316833E+00
  9.55134226967509E+00  2.41952855312678E-02  3.16962470330738E+00
  9.58800143932347E+00  3.18696007296429E+00  2.19181927559628E-02
  6.35936594338067E+00  3.24790600266670E-02  6.33736019498367E+00
  6.32975246641271E+00  3.13002453111518E+00  9.64215195960106E+00
  9.54187285225486E+00  2.06233036628890E-03  9.55962532404658E+00
  9.60663502276452E+00  3.24998813444758E+00  6.46929011515033E+00
  6.40099858605803E+00  6.41969537151198E+00 -1.49906439597909E-02
  6.35651209467489E+00  9.58050066157623E+00  3.23664737931375E+00
  9.60411605434821E+00  6.38586812792833E+00  3.20476366579491E+00
  9.60883700670479E+00  9.67300264554876E+00 -9.94483919451053E-02
  6.40671686588020E+00  6.36892145334069E+00  6.36661856795955E+00
  6.45696992403263E+00  9.64773112271836E+00  9.55940961802687E+00
  9.59446091625035E+00  6.41774025859845E+00  9.55815772954910E+00
  9.59386111548512E+00  9.61466364566536E+00  6.47452762099994E+00
 Reduced coordinates (xred)
  1.62228215407230E-03 -2.48764934080103E-03  1.82667058850225E-03
  3.63796949351603E-03  2.48869580070858E-01  2.53871740682443E-01
  2.55860002580938E-01 -1.58026892331774E-04  2.51559303193748E-01
  2.50821044280428E-01  2.52250710431200E-01  1.16989798007052E-03
  3.01870434200668E-03 -9.48078414372352E-03  5.01079894210515E-01
  7.21324565091255E-04  2.41054222277431E-01  7.48190643295731E-01
  2.51587729326496E-01  8.06054166999353E-03  7.53441673240621E-01
  2.51515853728237E-01  2.48287706271565E-01  5.03823460475301E-01
 -5.60258006857697E-04  5.01864501691716E-01  3.05519519322175E-03
 -4.49123534981920E-04  7.51019778114497E-01  2.48268991590320E-01
  2.49118722600623E-01  4.97487100199313E-01  2.50205067907656E-01
  2.55159817144955E-01  7.41416005374802E-01 -4.24591742021667E-03
 -1.38707980588599E-03  5.03572412539903E-01  4.95727409209416E-01
  2.41079760760564E-03  7.51229083432737E-01  7.52943271803468E-01
  2.50034947937101E-01  5.06812891898345E-01  7.50843792982630E-01
  2.51351444706081E-01  7.51769433052906E-01  4.96116920562919E-01
  4.99149923521341E-01  4.10045785468483E-03  4.68768795778891E-03
  4.99067977199552E-01  2.48373198546130E-01  2.50849125930392E-01
  7.45616102238492E-01  1.88878107191786E-03  2.47433622428367E-01
  7.48477864115806E-01  2.48786890941787E-01  1.71102207306501E-03
  4.96437622434088E-01  2.53544574759305E-03  4.94719765416367E-01
  4.94125875598182E-01  2.44342274091739E-01  7.52705071007108E-01
  7.44876881518725E-01  1.60993783472982E-04  7.46262710698406E-01
  7.49932476406286E-01  2.53707114320654E-01  5.05018744352095E-01
  4.99687633572055E-01  5.01147179665260E-01 -1.17022981731389E-03
  4.96214839553075E-01  7.47892323308059E-01  2.52665681445258E-01
  7.49735835624373E-01  4.98506489299635E-01  2.50176710834888E-01
  7.50104372108102E-01  7.55113399340262E-01 -7.76334051093718E-03
  5.00134025439516E-01  4.97183563882958E-01  4.97003791409801E-01
  5.04056980798800E-01  7.53140602866382E-01  7.46245871820989E-01
  7.48982116803306E-01  5.00994555706358E-01  7.46148144383224E-01
  7.48935293948877E-01  7.50559222924696E-01  5.05427605074157E-01
 Cartesian forces (fcart) [Ha/bohr]; max,rms= 3.54280E-02 1.19005E-02 (free atoms)
  2.20842853979094E-03  7.36064582063654E-03  1.03978118273143E-03
 -1.02431276256109E-02 -7.57168854519124E-03 -2.90100760098526E-03
 -2.27544997513603E-02 -2.11957041649937E-03 -1.24007996327069E-02
 -1.02110851105306E-02  1.22634225165246E-03  1.38753165795051E-03
 -1.00064612816653E-02  2.19730771562961E-02 -6.82465515887566E-03
 -6.20534325532803E-03  2.78420708113695E-02  6.89047834962654E-03
 -1.50552150735502E-03 -3.54279892023144E-02 -1.96264866099515E-03
 -1.07847974028283E-02  1.10257936331409E-02 -7.45863166021108E-03
 -6.65447573443251E-03 -1.17729363290800E-02 -1.19857361622918E-02
 -2.67707757376068E-03  9.62952025242362E-04 -2.63830533432675E-03
  2.39286345651310E-03  3.60385868056031E-03  2.84400084980590E-03
 -6.75162754025690E-03  3.09601383429239E-02  1.38747524543164E-02
  8.12917318827895E-03 -7.02804945472347E-03  1.58813100830429E-02
 -1.15748657107818E-05 -1.32952410844538E-03 -6.61646548799941E-03
 -2.32854611349636E-03 -2.21938535078015E-02 -1.42465689067846E-02
 -5.83518111655273E-04 -7.60812709687927E-03  1.49769975275378E-02
 -2.25296152203469E-03 -1.80687507668920E-02 -1.19105050487239E-02
  3.49862008202681E-03  1.43757367496545E-02 -4.45083628246493E-04
  1.62272119072730E-02 -7.99301488717625E-03  1.48424224718735E-02
  1.00331984311964E-02  6.67118464558926E-03 -9.25499969682372E-03
  1.34175815494681E-02 -5.33630849452249E-03  1.52644786996190E-02
  1.86136406561457E-02  2.45321597394745E-02 -4.66785574048183E-03
  1.11897065495072E-02  8.20775254278475E-03  6.64005994056582E-03
  2.89348007653500E-03 -1.59266255298984E-02 -1.33896360578304E-02
  1.21821811837174E-02 -4.78698616044473E-03  1.22453059947146E-05
  1.86410671072336E-02 -1.05048056877794E-03 -1.15224174600570E-02
 -1.97241654989285E-03  8.62779019537346E-03 -5.26034659309083E-03
 -6.15982449993582E-03 -1.23161507607678E-02  2.24414737021732E-02
 -5.33104126987513E-03  4.26858586774177E-03  1.14959348571527E-02
 -1.94356825878020E-02 -2.08363840458512E-03  4.06881234379227E-03
  5.30210064230345E-03 -1.01583817019791E-02  1.61215700303992E-02
  1.14032893354172E-03  1.13398747353828E-03 -2.42961866261510E-02
 Reduced forces (fred)
 -2.82879061835889E-02 -9.42922819972209E-02 -1.33195267304525E-02
  1.31216528295208E-01  9.69909212290330E-02  3.71619775889583E-02
  2.91487205226059E-01  2.71492880004902E-02  1.58854313515312E-01
  1.30806063677030E-01 -1.57118532785348E-02 -1.77742103180090E-02
  1.28184832429265E-01 -2.81477527407019E-01  8.74239028055342E-02
  7.94925105118850E-02 -3.56659336128510E-01 -8.82669574383789E-02
  1.92877939203508E-02  4.53830132646781E-01  2.51415995676849E-02
  1.38155318141363E-01 -1.41242825475402E-01  9.55451417876410E-02
  8.52458975692134E-02  1.50808905340648E-01  1.53537350459296E-01
  3.42954271310073E-02 -1.23378244782214E-02  3.37967615530628E-02
 -3.06505174667999E-02 -4.61678387328443E-02 -3.64315806656765E-02
  8.64904122018239E-02 -3.96601781207722E-01 -1.77735508719456E-01
 -1.04132645130720E-01  9.00269044801409E-02 -2.03439511943442E-01
  1.50337440888099E-04  1.70287947943186E-02  8.47569931216095E-02
  2.98307391250214E-02  2.84300854400070E-01  1.82498617916247E-01
  7.47693042143703E-03  9.74576990761566E-02 -1.91855268107422E-01
  2.88625005083974E-02  2.31458288289020E-01  1.52573639894491E-01
 -4.48152598396304E-02 -1.84155596797940E-01  5.70159149817463E-03
 -2.07868521121034E-01  1.02388111669861E-01 -1.90131361644362E-01
 -1.28523208492492E-01 -8.54602843448652E-02  1.18556616336649E-01
 -1.71877156237554E-01  6.83557027799663E-02 -1.95537901921783E-01
 -2.38438673394094E-01 -3.14259375297535E-01  5.97953022559093E-02
 -1.43338077488055E-01 -1.05143719107939E-01 -8.50590976183111E-02
 -3.70634163692804E-02  2.04017664003132E-01  1.71521308121145E-01
 -1.56051677552287E-01  6.13188836804303E-02 -1.56792149455236E-04
 -2.38790006232529E-01  1.34542470511786E-02  1.47602237883667E-01
  2.52687194152603E-02 -1.10524401437601E-01  6.73851100778306E-02
  7.89094152553108E-02  1.57767482210569E-01 -2.87475207904501E-01
  6.82927020782334E-02 -5.46829940006388E-02 -1.47262855299789E-01
  2.48973157360877E-01  2.66889989278686E-02 -5.21214159036420E-02
 -6.79178458167742E-02  1.30126460567485E-01 -2.06517241869077E-01
 -1.46055502275365E-02 -1.45287885708921E-02  3.11234220901332E-01
 Cartesian velocities (vel) [bohr*Ha/hbar]; max,rms= 1.21449E-03 4.39500E-04 (free atoms)
  2.07813504065829E-04 -3.18677673513761E-04  2.33994089475137E-04
  4.66021568143520E-04 -1.44805251816622E-04  4.95980671576427E-04
  7.50667036059571E-04 -2.02465276181240E-05  1.99752861449277E-04
  1.05177419715853E-04  2.88319740607487E-04  1.49862224249423E-04
  3.86693427601273E-04 -1.21448742300953E-03  1.38336373593618E-04
  9.24033210941040E-05 -1.14595359777486E-03 -2.31786274391200E-04
  2.03387382702919E-04  1.03255367616661E-03  4.40873172830535E-04
  1.94180330090594E-04 -2.19345689867372E-04  4.89785958009122E-04
 -7.17702812265929E-05  2.38850726069196E-04  3.91368555559960E-04
 -5.75369779379963E-05  1.30630658207255E-04 -2.21740643709171E-04
 -1.12889186583811E-04 -3.21898379090988E-04  2.62732080144540E-05
  6.60971641801808E-04 -1.09961107264934E-03 -5.43901835100188E-04
 -1.77687801718813E-04  4.57629290465813E-04 -5.47319695182141E-04
  3.08818343813864E-04  1.57444438577926E-04  3.77031583515139E-04
  4.47524206191827E-06  8.72733129220503E-04  1.08086871280481E-04
  1.73121591639936E-04  2.26661810173163E-04 -4.97423675018391E-04
 -1.08892642368030E-04  5.25261491301522E-04  6.00491305888106E-04
 -1.19389838851813E-04 -2.08390498059504E-04  1.08780528610952E-04
 -5.61578370079052E-04  2.41948022659994E-04 -3.28745715124166E-04
 -1.94987670813680E-04 -1.55396454778924E-04  2.19182859597007E-04
 -4.56338365065121E-04  3.24789461356790E-04 -6.76398084691735E-04
 -7.52476760223985E-04 -7.24756397611402E-04  3.46513335687556E-04
 -6.56271125262545E-04  2.06160880957357E-05 -4.78753017699566E-04
 -8.64893620633866E-06  4.74879777461623E-04  6.42896376660556E-04
 -4.00140904415571E-05  1.46959066180176E-04 -1.49903643351048E-04
 -4.84875974060169E-04 -2.69995973112485E-04  3.41477509245114E-04
 -3.38400625442848E-05 -1.91313022042738E-04  2.26431654283874E-05
  1.33709893311510E-05  6.55024740656331E-04 -9.94483907164660E-04
  1.71694928935482E-05 -3.60781562926782E-04 -3.83818294563279E-04
  5.19703034790885E-04  4.02311858375735E-04 -4.80905799094625E-04
 -1.30387681430964E-04  1.27411156284662E-04 -4.93425742833781E-04
 -1.36388560992021E-04  7.16343920119078E-05  6.95275677252701E-04
 Kinetic energy of ions (ekin) [Ha]=  4.56021420440908E-01
 Total energy (etotal) [Ha]= -7.55289619680994E+01

 Difference of energy with previous step (new-old):
           Absolute (Ha)= 2.22530E-02
           Relative     = 2.94585E-04

--- Iteration: (  3/100) Internal Cycle: (1/1)
--------------------------------------------------------------------------------

---SELF-CONSISTENT-FIELD CONVERGENCE--------------------------------------------

     iter   Etot(hartree)      deltaE(h)  residm     vres2
 ETOT  1  -75.461532757185    -7.546E+01 3.889E-05 1.707E-02
 ETOT  2  -75.461577437282    -4.468E-05 1.076E-05 4.136E-03
 ETOT  3  -75.461587129721    -9.692E-06 1.150E-05 9.921E-05

 At SCF step    3       vres2   =  9.92E-05 < tolvrs=  1.00E-03 =>converged.

 Cartesian components of stress tensor (hartree/bohr^3)
  sigma(1 1)= -3.86617335E-03  sigma(3 2)= -6.47545364E-06
  sigma(2 2)= -3.85448109E-03  sigma(3 1)=  2.18681830E-06
  sigma(3 3)= -3.85555782E-03  sigma(2 1)=  7.84624163E-06
 

---OUTPUT-----------------------------------------------------------------------

 Cartesian coordinates (xcart) [bohr]
  4.30647091088879E-02 -6.37972709094082E-02  4.81888825492922E-02
  9.34065180009071E-02  3.17123514522856E+00  3.30357564717711E+00
  3.35165493950117E+00 -4.59175392073424E-03  3.24086677139674E+00
  3.22193477923757E+00  3.26186393769165E+00  3.10131017337165E-02
  7.71926168730324E-02 -2.44407140009443E-01  6.43193832211203E+00
  1.76505644419563E-02  2.97336612318150E+00  9.56141816457827E+00
  3.24388344058707E+00  2.04305104389077E-01  9.69747668272544E+00
  3.24006240654351E+00  3.15982887743876E+00  6.50385808081498E+00
 -1.61000861992533E-02  6.45151275110385E+00  7.77385423494633E-02
 -1.23527296775527E-02  9.63448217113381E+00  3.15649034033870E+00
  3.17985436793664E+00  6.33975683489153E+00  3.20847809273171E+00
  3.33660094523674E+00  9.38851699281713E+00 -1.08615831731925E-01
 -3.47338564636021E-02  6.49735474700946E+00  6.29610175523706E+00
  6.33102333408460E-02  9.63950131151874E+00  9.68341793794457E+00
  3.20293263117672E+00  6.57929664494082E+00  9.62669137537336E+00
  3.23787021512269E+00  9.65238382667603E+00  6.30614272491587E+00
  6.38220576659714E+00  1.03921894857050E-01  1.20626930936468E-01
  6.38125208167008E+00  3.16277207915866E+00  3.22470710563878E+00
  9.49575067077871E+00  4.79379629564474E-02  3.13819406126704E+00
  9.56961600768221E+00  3.17203119708185E+00  4.30066886079376E-02
  6.31424011475757E+00  6.54742963386572E-02  6.26951037470830E+00
  6.25461140271669E+00  3.05902766684447E+00  9.67756829321958E+00
  9.47528755690206E+00  5.93820363762953E-03  9.51073439899384E+00
  9.60632957273979E+00  3.29653819450892E+00  6.53401298062638E+00
  6.39933487458263E+00  6.43412994895408E+00 -3.07301591256163E-02
  6.30947772982643E+00  9.55192907339950E+00  3.27010562436198E+00
  9.60015151220178E+00  6.36757493487728E+00  3.20604475517636E+00
  9.60895757207651E+00  9.73922249211732E+00 -1.99205842013229E-01
  6.40740901646126E+00  6.33192383158552E+00  6.32870851568895E+00
  6.50749528165019E+00  9.68954472839290E+00  9.50975642961809E+00
  9.58187297901976E+00  6.42900253761160E+00  9.50970121147524E+00
  9.57977616556991E+00  9.62242265449679E+00  6.54247804057354E+00
 Reduced coordinates (xred)
  3.36180398976486E-03 -4.98027095311539E-03  3.76181752921875E-03
  7.29168758789282E-03  2.47559339986616E-01  2.57890370583693E-01
  2.61643633060200E-01 -3.58450735420315E-04  2.52995064121525E-01
  2.51517156849147E-01  2.54634187173431E-01  2.42100716110199E-03
  6.02596540773087E-03 -1.90794020304015E-02  5.02102913513820E-01
  1.37787388305670E-03  2.32112890178103E-01  7.46402667024065E-01
  2.53230557422878E-01  1.59488762208491E-02  7.57023940884110E-01
  2.52932272173576E-01  2.46668920955407E-01  5.07717258455502E-01
 -1.25683733015248E-03  5.03630971983127E-01  6.06858254094171E-03
 -9.64303643837056E-04  7.52106336544403E-01  2.46408301353529E-01
  2.48232191095757E-01  4.94906856744070E-01  2.50466673905676E-01
  2.60468457863914E-01  7.32905307792126E-01 -8.47898764495899E-03
 -2.71146420480891E-03  5.07209582124080E-01  4.91498966060660E-01
  4.94225084627994E-03  7.52498150782103E-01  7.55926458855939E-01
  2.50033772925583E-01  5.13606295467667E-01  7.51498155766851E-01
  2.52761140915121E-01  7.53503811606248E-01  4.92282804443081E-01
  4.98220590678933E-01  8.11256009813038E-03  9.41662224328398E-03
  4.98146142206876E-01  2.46898679091231E-01  2.51733575771958E-01
  7.41276398967893E-01  3.74222973898887E-03  2.44980020395553E-01
  7.47042623550524E-01  2.47621482988435E-01  3.35727467665399E-03
  4.92914919184822E-01  5.11118628717074E-03  4.89423136198931E-01
  4.88260062663286E-01  2.38799973992543E-01  7.55469812117063E-01
  7.39678966190637E-01  4.63560002937512E-04  7.42446088914429E-01
  7.49908631751740E-01  2.57340998790704E-01  5.10071270931021E-01
  4.99557757578659E-01  5.02274000698991E-01 -2.39891952580923E-03
  4.92543148308074E-01  7.45661910491764E-01  2.55277566304605E-01
  7.49426347556735E-01  4.97078449248812E-01  2.50276717812362E-01
  7.50113783924786E-01  7.60282786269892E-01 -1.55508073390499E-02
  5.00188057491121E-01  4.94295381076153E-01  4.94044380615843E-01
  5.08001192946931E-01  7.56404740702021E-01  7.42369744700866E-01
  7.47999451914111E-01  5.01873734395910E-01  7.42365434151072E-01
  7.47835766242772E-01  7.51164922287025E-01  5.10732087476467E-01
 Cartesian forces (fcart) [Ha/bohr]; max,rms= 7.52792E-02 2.44225E-02 (free atoms)
  4.58735161402381E-03  1.59275483560044E-02  2.27265263505398E-03
 -2.05454580867463E-02 -1.46906706724404E-02 -5.61090064689429E-03
 -4.89121077093545E-02 -2.83890137763100E-03 -2.47587401972635E-02
 -2.03910768967621E-02  2.61148661991075E-03  3.09048181432306E-03
 -1.88401094870385E-02  4.44683714451316E-02 -1.20302442557700E-02
 -1.54834986013883E-02  5.17060661180065E-02  1.30958981040128E-02
 -6.49930393552428E-03 -7.52792392490425E-02 -3.22249127989398E-03
 -2.13337145903797E-02  2.23583664248203E-02 -1.64029822381541E-02
 -1.22764316634361E-02 -2.13823346226206E-02 -2.23839401173467E-02
 -4.92522522544139E-03  9.09147058932939E-04 -4.80889128143804E-03
  4.95595249490878E-03  8.26488396627518E-03  5.50099092154437E-03
 -1.48087049667006E-02  6.47211138081030E-02  3.15993662642048E-02
  1.50034948430032E-02 -1.26286258391199E-02  2.99661916950821E-02
 -6.17411089887826E-04 -2.85386360102954E-03 -1.22906932995111E-02
 -2.81068238793239E-03 -4.73344921979244E-02 -3.26140103006670E-02
 -7.66001105527820E-04 -1.79842829318678E-02  2.92781005802510E-02
 -4.19013265186597E-03 -3.58934893969497E-02 -2.60160682035042E-02
  6.87523269292370E-03  3.03620243663043E-02 -1.24807431771521E-03
  3.33190182914825E-02 -1.68523184739067E-02  2.87223728715654E-02
  1.94488131941135E-02  1.30815813714217E-02 -1.84938079254790E-02
  2.93610205955605E-02 -1.17088440528307E-02  3.45122355607944E-02
  4.25137317628912E-02  5.17293464722281E-02 -9.65801038399803E-03
  2.26155757434181E-02  1.91679955162137E-02  1.20341641274652E-02
  4.45256663324828E-03 -3.03938105346349E-02 -2.72719290106796E-02
  2.61670087401121E-02 -1.18137989467227E-02  5.57509231814550E-05
  3.64213727149552E-02 -1.96674252716077E-03 -2.32981360627683E-02
 -3.87512597116965E-03  1.49767091871142E-02 -9.23427840208392E-03
 -1.09884923544583E-02 -2.36314297929308E-02  4.33226281383047E-02
 -1.03267005477768E-02  9.38313335410305E-03  2.26140099867500E-02
 -4.25064182779234E-02 -6.77746512755545E-03  9.58563060770344E-03
  1.00684185312433E-02 -1.70753462021000E-02  3.31985016044787E-02
  4.30703769742985E-03  1.43788148189814E-03 -4.95057779115484E-02
 Reduced forces (fred)
 -5.87650801293434E-02 -2.04034147824789E-01 -2.91130407054542E-02
  2.63186212137522E-01  1.88185237929588E-01  7.18752768363032E-02
  6.26562993803132E-01  3.63640732630796E-02  3.17159101476533E-01
  2.61208589093824E-01 -3.34553969854302E-02 -3.95894324918911E-02
  2.41340696575264E-01 -5.69642091596510E-01  1.54107068466001E-01
  1.98342511130086E-01 -6.62356960356037E-01 -1.67758815162817E-01
  8.32549774603676E-02  9.64324801395861E-01  4.12797528450292E-02
  2.73283777949066E-01 -2.86412927286321E-01  2.10121842020342E-01
  1.57259983654917E-01  2.73905453131397E-01  2.86737912452799E-01
  6.30910291842058E-02 -1.16484272093044E-02  6.16015368648085E-02
 -6.34868574134799E-02 -1.05875416992359E-01 -7.04680541553960E-02
  1.89698404669736E-01 -8.29079721266172E-01 -4.04788242294877E-01
 -1.92195874892570E-01  1.61770443614753E-01 -3.83867276064415E-01
  7.90793010776465E-03  3.65557393448149E-02  1.57443420716325E-01
  3.60037354357155E-02  6.06352591671038E-01  4.17785111501132E-01
  9.81136820811297E-03  2.30376410972853E-01 -3.75052828883428E-01
  5.36744933167047E-02  4.59793345790552E-01  3.33265473236477E-01
 -8.80728367500509E-02 -3.88939785516732E-01  1.59874715595192E-02
 -4.26817730267589E-01  2.15875946266371E-01 -3.67933956935166E-01
 -2.49140402970292E-01 -1.67577310752285E-01  2.36905319074973E-01
 -3.76115779782828E-01  1.49988038932388E-01 -4.42102097984189E-01
 -5.44602009836334E-01 -6.62655181693615E-01  1.23718752568602E-01
 -2.89706631226884E-01 -2.45544275947071E-01 -1.54158002923241E-01
 -5.70384845256089E-02  3.89342459564299E-01  3.49353050176393E-01
 -3.35200487914534E-01  1.51332511123144E-01 -7.14529776367116E-04
 -4.66558890432275E-01  2.51917183885560E-02  2.98448762513650E-01
  4.96392577369849E-02 -1.91853898071306E-01  1.18290745880282E-01
  1.40761481106913E-01  3.02716362263070E-01 -5.54963226902096E-01
  1.32283928063323E-01 -1.20200191650434E-01 -2.89685828380681E-01
  5.44506112186501E-01  8.68170748996118E-02 -1.22792288535094E-01
 -1.28977547338926E-01  2.18732931464528E-01 -4.25273166003785E-01
 -5.51742588577748E-02 -1.84215151674887E-02  6.34168654596523E-01
 Cartesian velocities (vel) [bohr*Ha/hbar]; max,rms= 1.22204E-03 4.39500E-04 (free atoms)
  2.15248909363563E-04 -3.19007914554337E-04  2.40878684188949E-04
  4.67057523972478E-04 -1.56195918707383E-04  5.05303524615538E-04
  7.45894020199859E-04 -2.29273977183858E-05  1.91945919053792E-04
  9.72794928533348E-05  2.96739395463513E-04  1.55014280425795E-04
  3.86002845037112E-04 -1.22204093115024E-03  1.34746901129445E-04
  8.83105943980316E-05 -1.14576428665436E-03 -2.30444307517570E-04
  2.06890562712153E-04  1.02174190360197E-03  4.49809203937910E-04
  1.87904894046777E-04 -2.13445870700619E-04  4.94274760863452E-04
 -8.04000922245402E-05  2.32659088422757E-04  3.88756470786458E-04
 -6.17168435586761E-05  1.34869320951088E-04 -2.29965092828525E-04
 -1.13233080729759E-04 -3.26189115183540E-04  2.98485700166351E-05
  6.70441676575116E-04 -1.09505981064635E-03 -5.43132556215292E-04
 -1.73732241613323E-04  4.61759867542489E-04 -5.44569247548942E-04
  3.16481932914735E-04  1.59988011510899E-04  3.79588719476880E-04
  2.19161882513889E-06  8.71568029015768E-04  9.61128895524799E-05
  1.76819567086919E-04  2.24464494890260E-04 -4.94364164444062E-04
 -1.13918190534926E-04  5.19720134788291E-04  6.03150480179097E-04
 -1.18757045466313E-04 -1.98774717386480E-04  1.11016723939533E-04
 -5.58825844070209E-04  2.39736612492209E-04 -3.21643672910306E-04
 -1.89503130330602E-04 -1.52393529141441E-04  2.15101327406671E-04
 -4.53866709655872E-04  3.27366047349095E-04 -6.77489344986891E-04
 -7.52009498426946E-04 -7.17509306803239E-04  3.50322690569197E-04
 -6.61056387743147E-04  2.95825124740732E-05 -4.83804482375860E-04
 -5.88681122002766E-06  4.70285843595288E-04  6.45089920176613E-04
 -2.84708080076199E-05  1.45677311395681E-04 -1.53617272587609E-04
 -4.77738328204125E-04 -2.77780681973387E-04  3.38097227165451E-04
 -3.67098748708977E-05 -1.87191532140268E-04  1.77852621719327E-05
  7.36281176905085E-06  6.58621168160893E-04 -9.96089795180101E-04
  1.21086917083337E-05 -3.65353808646285E-04 -3.81516679531509E-04
  5.12605619062377E-04  4.10159627945576E-04 -4.88661304454905E-04
 -1.28172911531092E-04  1.20112624259919E-04 -4.89087115271671E-04
 -1.38602962336904E-04  7.45828275465514E-05  6.87541480197411E-04
 Kinetic energy of ions (ekin) [Ha]=  4.56021420440908E-01
 Total energy (etotal) [Ha]= -7.54615871297215E+01

 Difference of energy with previous step (new-old):
           Absolute (Ha)= 6.73748E-02
           Relative     = 8.92438E-04

--- Iteration: (  4/100) Internal Cycle: (1/1)
--------------------------------------------------------------------------------

---SELF-CONSISTENT-FIELD CONVERGENCE--------------------------------------------

     iter   Etot(hartree)      deltaE(h)  residm     vres2
 ETOT  1  -75.349408076121    -7.535E+01 1.427E-05 2.346E-01
 ETOT  2  -75.349800101696    -3.920E-04 3.244E-06 7.144E-02
 ETOT  3  -75.349961984862    -1.619E-04 3.880E-06 5.813E-05

 At SCF step    3       vres2   =  5.81E-05 < tolvrs=  1.00E-03 =>converged.

 Cartesian components of stress tensor (hartree/bohr^3)
  sigma(1 1)= -3.97631217E-03  sigma(3 2)= -1.38788370E-05
  sigma(2 2)= -3.94461829E-03  sigma(3 1)=  4.63397165E-06
  sigma(3 3)= -3.95103842E-03  sigma(2 1)=  1.61269338E-05
 

---OUTPUT-----------------------------------------------------------------------

 Cartesian coordinates (xcart) [bohr]
  6.86296343819828E-02 -9.56241551854180E-02  7.60242293276961E-02
  1.40657134303317E-01  3.14957939337889E+00  3.35917353977461E+00
  3.42294929986358E+00 -8.03075880061970E-03  3.25587051072304E+00
  3.22741777085191E+00  3.29610801660803E+00  4.93554478172292E-02
  1.15670936586562E-01 -3.70568839111636E-01  6.44382736748749E+00
  2.36226119938853E-02  2.85803991798372E+00  9.53894539960005E+00
  3.26571376086213E+00  2.99714011889155E-01  9.74741749762132E+00
  3.25552432752209E+00  3.14172570965617E+00  6.55538660254430E+00
 -2.85671535656936E-02  6.47191166000579E+00  1.15546516793978E-01
 -2.06858853241377E-02  9.65003296614154E+00  3.12916559207614E+00
  3.16838333612584E+00  6.30505489404061E+00  3.21335039854400E+00
  3.40846632599377E+00  9.28205695025892E+00 -1.61693567613851E-01
 -5.02471132509796E-02  6.54606244142484E+00  6.24274058396148E+00
  9.89560393003846E-02  9.65682780757254E+00  9.72295490842439E+00
  3.20231568856275E+00  6.66519935207220E+00  9.62897360053970E+00
  3.25763020319783E+00  9.67305496734338E+00  6.25820770896859E+00
  6.36817629292160E+00  1.52959448307734E-01  1.81905382089682E-01
  6.36969203716742E+00  3.14841736550366E+00  3.23694068539948E+00
  9.44153316448832E+00  7.05337293296057E-02  3.10965150742488E+00
  9.55348547126464E+00  3.15835429224309E+00  6.23234927300289E-02
  6.27072408790429E+00  9.93769981664062E-02  6.20202324827249E+00
  6.18078890240662E+00  2.99174582702824E+00  9.71458022787266E+00
  9.40665456225755E+00  1.43085571080767E-02  9.45936348896687E+00
  9.60694359733696E+00  3.34140497971259E+00  6.59959660453266E+00
  6.40308833587787E+00  6.44753228159060E+00 -4.80836387025688E-02
  6.26536404352811E+00  9.51998599769115E+00  3.30204379710498E+00
  9.59494974657305E+00  6.35059096494952E+00  3.20548582266665E+00
  9.60674355092817E+00  9.80723531050388E+00 -3.00014797902962E-01
  6.40596697719720E+00  6.29310855250039E+00  6.29171254655772E+00
  6.55416086622420E+00  9.73423002326971E+00  9.45702153116968E+00
  9.57013524504313E+00  6.43778105930665E+00  9.46333008970685E+00
  9.56515620147569E+00  9.63129027751063E+00  6.60687367552077E+00
 Reduced coordinates (xred)
  5.35750463559585E-03 -7.46480524476331E-03  5.93475638779829E-03
  1.09802602890958E-02  2.45868805103738E-01  2.62230565165856E-01
  2.67209156898016E-01 -6.26913255317697E-04  2.54166316215694E-01
  2.51945181175012E-01  2.57307417377676E-01  3.85288429486567E-03
  9.02973743845134E-03 -2.89280904849052E-02  5.03031020100507E-01
  1.84407587774280E-03  2.23110063855091E-01  7.44648352818115E-01
  2.54934719817497E-01  2.33968783676155E-02  7.60922521281914E-01
  2.54139291765971E-01  2.45255715039514E-01  5.11739781619383E-01
 -2.23006663276297E-03  5.05223392662434E-01  9.02002473020904E-03
 -1.61482321031520E-03  7.53320294000120E-01  2.44275221863868E-01
  2.47336716325202E-01  4.92197884000048E-01  2.50847025647463E-01
  2.66078557844947E-01  7.24594609700150E-01 -1.26224486817994E-02
 -3.92249127642307E-03  5.11011900189293E-01  4.87333378919709E-01
  7.72490548793010E-03  7.53850726586459E-01  7.59012873413301E-01
  2.49985611909660E-01  5.20312205470117E-01  7.51676315420742E-01
  2.54303684871025E-01  7.55117483789491E-01  4.88540804759453E-01
  4.97125393670695E-01  1.19406282831955E-02  1.42002640194912E-02
  4.97243718748433E-01  2.45778092545172E-01  2.52688578095197E-01
  7.37043962879651E-01  5.50614592736969E-03  2.42751874115916E-01
  7.45783409154148E-01  2.46553808918274E-01  4.86522191491248E-03
  4.89517883521022E-01  7.75776722610509E-03  4.84154820317915E-01
  4.82497182077020E-01  2.33547683608762E-01  7.58359112246109E-01
  7.34321199239465E-01  1.11698338080224E-03  7.38435869552449E-01
  7.49956564975563E-01  2.60843480071240E-01  5.15190991766796E-01
  4.99850767828093E-01  5.03320240561327E-01 -3.75360177225361E-03
  4.89099456949892E-01  7.43168305830690E-01  2.57770788220529E-01
  7.49020276859723E-01  4.95752612408237E-01  2.50233085297943E-01
  7.49940948550208E-01  7.65592139773917E-01 -2.34203589307542E-02
  5.00075486120000E-01  4.91265304644839E-01  4.91156326819494E-01
  5.11644095723982E-01  7.59893054119415E-01  7.38253046929717E-01
  7.47083157302352E-01  5.02559021023158E-01  7.38745518322159E-01
  7.46694473183114E-01  7.51857164520736E-01  5.15759069127304E-01
 Cartesian forces (fcart) [Ha/bohr]; max,rms= 1.19015E-01 3.75915E-02 (free atoms)
  6.61874630699550E-03  2.56290906608042E-02  3.05857233408368E-03
 -3.10404649366575E-02 -2.08154976932802E-02 -8.15964388693242E-03
 -7.78011802044068E-02 -2.88247990508968E-03 -3.70000597366355E-02
 -2.99020163047367E-02  3.82489658909292E-03  4.48821292178233E-03
 -2.72356353415008E-02  6.74187718589969E-02 -1.56733534035025E-02
 -2.71461143964151E-02  7.15551136043396E-02  1.83307782677784E-02
 -1.60583132230125E-02 -1.19014555065584E-01 -4.08844331676021E-03
 -3.12660940224731E-02  3.31311468451732E-02 -2.63421134674926E-02
 -1.61860208337815E-02 -2.87989554547867E-02 -3.16467946107353E-02
 -6.67671994286147E-03 -5.02428615781775E-04 -6.00280202239136E-03
  7.40829411942694E-03  1.43263378291468E-02  7.75664476826463E-03
 -2.48546897063217E-02  1.00774862439197E-01  5.39940292438655E-02
  2.02546948660895E-02 -1.70492097561775E-02  4.23139081673474E-02
 -2.20768684969163E-03 -4.36724983253768E-03 -1.67074875637138E-02
 -2.23192774269317E-03 -7.52747405407795E-02 -5.49352533870294E-02
 -4.67925979009443E-04 -3.01681847609540E-02  4.26336496761390E-02
 -5.44341460202942E-03 -5.25384942643458E-02 -4.23183459251975E-02
  1.00817481379943E-02  4.69598098871579E-02 -2.72925989835933E-03
  5.08179379401604E-02 -2.62091637166078E-02  4.15221866530110E-02
  2.80033181374554E-02  1.86075700348199E-02 -2.72643380250427E-02
  4.72807217923187E-02 -1.90066425600664E-02  5.75600699711831E-02
  7.22705256159624E-02  8.17827589863689E-02 -1.49068145881738E-02
  3.43402973862310E-02  3.22362663607407E-02  1.64569124323534E-02
  5.27365256147919E-03 -4.35628481596938E-02 -4.20460149475299E-02
  4.15566415591110E-02 -2.11600998507322E-02  1.76102502906090E-04
  5.34172233540472E-02 -2.28456065295660E-03 -3.53442074518304E-02
 -5.41176306606566E-03  1.93344541306240E-02 -1.16848992755227E-02
 -1.43942053410605E-02 -3.37867789402609E-02  6.26832756968723E-02
 -1.44075559265071E-02  1.53866988386976E-02  3.34821587594265E-02
 -6.89276155249307E-02 -1.41472906277290E-02  1.67836878733862E-02
  1.42665683800400E-02 -2.01204316135878E-02  5.06687309194369E-02
  1.00689737868432E-02  7.21833945790771E-04 -7.50590886809870E-02
 Reduced forces (fred)
 -8.47860103250400E-02 -3.28296486580121E-01 -3.91833848608745E-02
  3.97628485706155E-01  2.66658690235701E-01  1.04521964930342E-01
  9.96633248286023E-01  3.69367323689802E-02  4.73967691965038E-01
  3.83044958731250E-01 -4.89847605214989E-02 -5.74970807892942E-02
  3.48888618592197E-01 -8.63622302728969E-01  2.00772583837604E-01
  3.47741855285649E-01 -9.16608840486809E-01 -2.34820342871503E-01
  2.05707122254362E-01  1.52458861517491E+00  5.23698856264357E-02
  4.00518794295453E-01 -4.24397826301887E-01  3.37439400257317E-01
  2.07343056748313E-01  3.68926784160599E-01  4.05392365702257E-01
  8.55289123356277E-02  6.44827535294587E-03  7.68928206455707E-02
 -9.49001178022868E-02 -1.83508222806589E-01 -9.93656927427324E-02
  3.18388705005554E-01 -1.29091382306134E+00 -6.91666587875180E-01
 -2.59462511367034E-01  2.18412541761415E-01 -5.42044236884982E-01
  2.82805984121221E-02  5.59566351395891E-02  2.14019842429911E-01
  2.85911242514718E-02  9.64281591112167E-01  7.03717522626584E-01
  5.99426165868326E-03  3.86466611572602E-01 -5.46140125612603E-01
  6.97302709195692E-02  6.73030276311051E-01  5.42094938040517E-01
 -1.29147063780135E-01 -6.01542999869712E-01  3.49587460367205E-02
 -6.50977655145882E-01  3.35751551994527E-01 -5.31902284286333E-01
 -3.58722375473231E-01 -2.38350807361262E-01  3.49253096839535E-01
 -6.05665916292030E-01  2.43487255979231E-01 -7.37347569592118E-01
 -9.25785303272905E-01 -1.04762497783060E+00  1.90953221613244E-01
 -4.39899079650047E-01 -4.12934407296307E-01 -2.10816121519710E-01
 -6.75553594449761E-02  5.58052249710458E-01  5.38606378216596E-01
 -5.32340448504639E-01  2.71073043872661E-01 -2.25894632348961E-03
 -6.84274501297773E-01  2.92773867491554E-02  4.52756224196685E-01
  6.93248147438734E-02 -2.47662192628512E-01  1.49680486458184E-01
  1.84389900286558E-01  4.32820803009524E-01 -8.02975834938197E-01
  1.84560921286128E-01 -1.97091447338935E-01 -4.28909526969516E-01
  8.82962884741934E-01  1.81238957725990E-01 -2.15002114919340E-01
 -1.82754611080740E-01  2.57754893754841E-01 -6.49069516339249E-01
 -1.28983424341889E-01 -9.23452806079844E-03  9.61503852742180E-01
 Cartesian velocities (vel) [bohr*Ha/hbar]; max,rms= 1.24569E-03 4.39500E-04 (free atoms)
  2.38930359827601E-04 -3.18922965611659E-04  2.62850442432063E-04
  4.70400900330100E-04 -1.91675417531567E-04  5.35083778890636E-04
  7.27538035624661E-04 -2.99366977954948E-05  1.67460180907893E-04
  7.24508339642095E-05  3.23551354177459E-04  1.71627248445271E-04
  3.85161194837538E-04 -1.24568849934834E-03  1.25167389083204E-04
  7.22396819267584E-05 -1.14967144328123E-03 -2.27024517034767E-04
  2.14361177998860E-04  9.83365725478180E-04  4.78835886898790E-04
  1.68425862359057E-04 -1.94597811650310E-04  5.07034015536051E-04
 -1.06557170632338E-04  2.15494214107049E-04  3.82292726486006E-04
 -7.44789292583450E-05  1.47204542242529E-04 -2.55471204400987E-04
 -1.14167606141144E-04 -3.38702802928099E-04  4.09463930208910E-05
  6.99141528895058E-04 -1.07814226686904E-03 -5.36865561491319E-04
 -1.62634400314109E-04  4.76423674427792E-04 -5.37944696201550E-04
  3.40104950181888E-04  1.67849793232783E-04  3.88745978843030E-04
 -3.08723558331852E-06  8.65103448628601E-04  5.40932894109230E-05
  1.88955063912014E-04  2.14715661311674E-04 -4.85583053143362E-04
 -1.29460246544363E-04  5.02646985205579E-04  6.09430229803042E-04
 -1.16919538554241E-04 -1.66838002493801E-04  1.17751461208488E-04
 -5.49426905141141E-04  2.31922837299646E-04 -3.00336942622679E-04
 -1.72923725485678E-04 -1.43238110808542E-04  2.02322407705679E-04
 -4.43578652116919E-04  3.34507659817618E-04 -6.76991240448302E-04
 -7.45268157687823E-04 -6.92117654489407E-04  3.62085456293668E-04
 -6.76101538745446E-04  6.07025552310273E-05 -5.01198488205784E-04
  1.43048529439185E-06  4.57468000294031E-04  6.51678880062726E-04
  9.78713295018559E-06  1.39365269574958E-04 -1.65330700337016E-04
 -4.56275561305241E-04 -3.02276155594436E-04  3.27295447156665E-04
 -4.56972501942176E-05 -1.76614969406778E-04  3.83828347331687E-06
 -1.01844573000873E-05  6.71202806742596E-04 -1.00309100916803E-03
 -3.48864610350014E-06 -3.78987883736599E-04 -3.74787406871155E-04
  4.86617107985660E-04  4.32309045449480E-04 -5.11759922548337E-04
 -1.21779910139328E-04  1.00547995147907E-04 -4.74577987213153E-04
 -1.43514384840743E-04  8.30291131763936E-05  6.62423234028101E-04
 Kinetic energy of ions (ekin) [Ha]=  4.56021420440908E-01
 Total energy (etotal) [Ha]= -7.53499619848625E+01

 Difference of energy with previous step (new-old):
           Absolute (Ha)= 1.11625E-01
[...]
                       2.000000  2.000000  2.000000  2.000000  2.000000  2.000000
                       2.000000  2.000000  2.000000  2.000000  2.000000  2.000000
                       2.000000  2.000000  1.999999  1.999998  1.999885  1.999691
                       1.999561  1.999227  1.999076  1.998813  1.998589  1.998079
                       1.916943  1.863717  1.753744  1.612673  1.558095  1.471156
                       1.373994  1.009711  0.960373  0.833756  0.002448  0.001585
                       0.001363  0.000934  0.000356  0.000171  0.000107  0.000042
                       0.000012  0.000008  0.000005  0.000004  0.000003  0.000002
                       0.000001  0.000001  0.000000  0.000000  0.000000  0.000000
                       0.000000  0.000000  0.000000  0.000000  0.000000  0.000000
                       0.000000  0.000000
                       2.000000  2.000000  2.000000  2.000000  2.000000  2.000000
                       2.000000  2.000000  2.000000  2.000000  2.000000  2.000000
                       2.000000  2.000000  2.000000  2.000000  2.000000  2.000000
                       2.000000  2.000000  2.000000  2.000000  2.000000  2.000000
                       2.000000  2.000000  2.000000  2.000000  2.000000  2.000000
                       1.999999  1.999998  1.999996  1.999994  1.999991  1.999989
                       1.999985  1.999981  1.999974  1.999958  1.998413  1.997773
                       1.997058  1.995118  0.455969  0.323236  0.249654  0.176724
                       0.032005  0.016168  0.008047  0.004137  0.003337  0.002222
                       0.001459  0.001133  0.000933  0.000460  0.000305  0.000185
                       0.000163  0.000121  0.000101  0.000059  0.000001  0.000000
                       0.000000  0.000000  0.000000  0.000000  0.000000  0.000000
                       0.000000  0.000000  0.000000  0.000000  0.000000  0.000000
                       0.000000  0.000000
                       2.000000  2.000000  2.000000  2.000000  2.000000  2.000000
                       2.000000  2.000000  2.000000  2.000000  2.000000  2.000000
                       2.000000  2.000000  2.000000  2.000000  2.000000  2.000000
                       2.000000  2.000000  2.000000  2.000000  2.000000  2.000000
                       2.000000  2.000000  2.000000  2.000000  2.000000  2.000000
                       2.000000  2.000000  1.999999  1.999998  1.999846  1.999762
                       1.999540  1.999316  1.999145  1.998953  1.998504  1.997564
                       1.899840  1.877711  1.754070  1.667343  1.605874  1.520471
                       1.253378  1.094289  0.954588  0.747769  0.002932  0.002144
                       0.000922  0.000813  0.000407  0.000252  0.000081  0.000041
                       0.000008  0.000006  0.000005  0.000003  0.000002  0.000002
                       0.000001  0.000001  0.000000  0.000000  0.000000  0.000000
                       0.000000  0.000000  0.000000  0.000000  0.000000  0.000000
                       0.000000  0.000000
                       2.000000  2.000000  2.000000  2.000000  2.000000  2.000000
                       2.000000  2.000000  2.000000  2.000000  2.000000  2.000000
                       2.000000  2.000000  2.000000  2.000000  2.000000  2.000000
                       2.000000  2.000000  2.000000  2.000000  2.000000  2.000000
                       2.000000  2.000000  2.000000  2.000000  2.000000  1.999999
                       1.999999  1.999999  1.999995  1.999994  1.999993  1.999991
                       1.999986  1.999979  1.999967  1.999957  1.998564  1.997530
                       1.996546  1.994842  0.493418  0.299441  0.278010  0.225416
                       0.032044  0.010742  0.008127  0.003178  0.002558  0.002070
                       0.001473  0.001292  0.000895  0.000443  0.000372  0.000294
                       0.000177  0.000141  0.000107  0.000076  0.000001  0.000000
                       0.000000  0.000000  0.000000  0.000000  0.000000  0.000000
                       0.000000  0.000000  0.000000  0.000000  0.000000  0.000000
                       0.000000  0.000000
                       2.000000  2.000000  2.000000  2.000000  2.000000  2.000000
                       2.000000  2.000000  2.000000  2.000000  2.000000  2.000000
                       2.000000  2.000000  2.000000  2.000000  2.000000  2.000000
                       2.000000  2.000000  2.000000  2.000000  2.000000  2.000000
                       2.000000  2.000000  2.000000  2.000000  2.000000  2.000000
                       2.000000  2.000000  1.996063  1.993944  1.989535  1.985162
                       1.981584  1.980055  1.970990  1.960145  1.957595  1.940431
                       1.937740  1.925309  1.906303  1.893785  1.871907  1.855487
                       1.816176  1.791153  1.731332  1.670807  1.660928  1.592718
                       1.516732  1.221382  0.000000  0.000000  0.000000  0.000000
                       0.000000  0.000000  0.000000  0.000000  0.000000  0.000000
                       0.000000  0.000000  0.000000  0.000000  0.000000  0.000000
                       0.000000  0.000000  0.000000  0.000000  0.000000  0.000000
                       0.000000  0.000000
           occopt           3
           ortalg          -2
        paral_kgb           1
           prtden           0
           prteig           0
            prtwf           0
           shiftk      5.00000000E-01  5.00000000E-01  5.00000000E-01
          spgroup           1
           strten     -4.1423315700E-03 -4.1282909644E-03 -4.0352350419E-03
                       3.1917641119E-05 -1.1394873355E-05 -3.0962173642E-05
           tolvrs      1.00000000E-03
           tsmear      9.50044600E-03 Hartree
            typat      1  1  1  1  1  1  1  1  1  1  1  1  1  1  1  1  1  1  1  1
                       1  1  1  1  1  1  1  1  1  1  1  1
              vel     -4.5978670233E-04  4.2683485358E-04  3.6016517400E-04
                      -4.0985939947E-04  2.1015870510E-04  1.0718864689E-03
                       5.8505337924E-04 -3.3295222195E-04 -5.0193042053E-05
                       8.6842865347E-05  6.5270993287E-04  5.5911914942E-04
                      -1.6693904948E-04 -3.5574494653E-04 -3.7006610429E-04
                      -1.8918982296E-04 -8.5755437774E-04  9.8874890124E-05
                      -1.1598132697E-03 -2.5041612108E-04  2.0034082158E-04
                      -8.2700055907E-05  1.1385173428E-04 -2.1765654058E-04
                      -2.9311216169E-04 -1.1392069318E-03 -3.1299489032E-06
                       9.0201786382E-05 -1.2690508524E-04  2.9002978473E-04
                      -3.7803186881E-04  3.8713930986E-04  1.9688102040E-04
                       5.3636846472E-04 -3.6188242839E-04  7.7293479359E-05
                       3.9791460016E-04 -1.9138173917E-04  4.1430308364E-04
                       4.3564824941E-04  1.5566462202E-04  5.7536717139E-05
                       1.2269382504E-04  2.6322237308E-04  3.0953675443E-04
                      -8.2443168298E-04 -2.6914816862E-05 -5.7538776514E-04
                       1.3148040176E-04  6.8503142702E-04 -1.1378302017E-04
                       5.0079729330E-04 -7.6089968341E-05 -4.1113904556E-04
                      -3.7800110507E-04 -5.2852270221E-04 -4.2420987966E-04
                       4.8216623347E-04  4.2321305855E-04  1.5894715968E-04
                       1.0638324697E-04 -3.0924441101E-04  2.5264572782E-04
                       3.1200452930E-04 -1.2419444001E-06  8.1112749086E-05
                       1.0368034720E-04  2.6002245761E-04 -3.1458673646E-04
                      -1.7499582563E-04  7.9618945128E-04  1.2530010944E-04
                       5.4810790285E-04 -2.5440420183E-04 -1.4449685434E-03
                      -2.0828441835E-04 -1.1495296246E-04  2.0977162025E-04
                      -2.7041063645E-04 -4.6904297340E-04  4.4756905358E-04
                       5.4496424745E-05  5.1800741656E-04 -5.8336148916E-04
                       2.5685638599E-04 -8.6512653377E-05  3.6463220111E-04
                      -2.5331008629E-04  5.1634828773E-04 -9.5668410449E-04
                       5.0773564448E-04  2.9665140707E-04  4.3005009251E-04
                      -9.5654952039E-06 -2.2207455079E-04 -2.4082983737E-04
         wfoptalg          14
              wtk        0.07407    0.07407    0.07407    0.07407    0.07407    0.07407
                         0.07407    0.07407    0.07407    0.07407    0.07407    0.07407
                         0.07407    0.03704
           xangst     -7.9572340674E-02 -1.0697478816E-01 -1.1159895349E-01
                       2.6772724351E-02  1.6365014092E+00  1.6766294866E+00
                       1.7062913694E+00  9.5888950179E-02  1.6950738372E+00
                       1.6692902715E+00  1.7072020590E+00  1.4759658159E-01
                      -2.2794108405E-02  8.2088371799E-02  3.3424958061E+00
                       1.2929486108E-01  1.8109915910E+00  5.1641732991E+00
                       1.7207616118E+00  1.1289404338E-01  5.1204131186E+00
                       1.6168894158E+00  1.6919858442E+00  3.3254571582E+00
                       2.3509508303E-01  3.6884273818E+00  1.3816932408E-02
                       7.1377493678E-02  5.0559760082E+00  1.8938244348E+00
                       1.7468475781E+00  3.5463193142E+00  1.8205931716E+00
                       1.8317457539E+00  5.1397500012E+00 -9.3590758460E-03
                      -1.2292357227E-01  3.3218766484E+00  3.4960217693E+00
                      -2.8419380101E-02  5.0217893080E+00  4.9189912910E+00
                       1.6558465101E+00  3.6325913729E+00  5.1037154891E+00
                       1.4509167972E+00  5.1545913474E+00  3.5113454765E+00
                       3.5408716647E+00 -7.6060352505E-02 -1.0696750172E-01
                       3.3668406863E+00  1.6475652251E+00  1.7639379710E+00
                       5.0287286879E+00 -1.4202327796E-01  1.5771375008E+00
                       4.9914009023E+00  1.7394821261E+00  6.3262299654E-02
                       3.4110467739E+00 -1.7102244777E-01  3.4106420669E+00
                       3.5273330119E+00  1.5977047155E+00  5.0508390820E+00
                       5.0324780904E+00 -5.5793579679E-02  4.9656424328E+00
                       5.2632959893E+00  1.6767743183E+00  3.4630677261E+00
                       3.2215440986E+00  3.4292676450E+00 -3.2509029614E-01
                       3.2276721989E+00  5.0275464127E+00  1.8983806264E+00
                       5.0686679435E+00  3.3202998356E+00  1.6222652661E+00
                       5.1235998737E+00  5.0941156981E+00 -5.0357653746E-02
                       3.3997314805E+00  3.3001620532E+00  3.4270297681E+00
                       3.2989878949E+00  5.0967791233E+00  4.8796946846E+00
                       5.0861875656E+00  3.3606857604E+00  5.2091690418E+00
                       5.1493135736E+00  4.9077383864E+00  3.3872776674E+00
            xcart     -1.5036993163E-01 -2.0215305274E-01 -2.1089145882E-01
                       5.0593116854E-02  3.0925394796E+00  3.1683705560E+00
                       3.2244233911E+00  1.8120385501E-01  3.2032253273E+00
                       3.1545014494E+00  3.2261443450E+00  2.7891711735E-01
                      -4.3074622329E-02  1.5512454139E-01  6.3164016738E+00
                       2.4433187783E-01  3.4222781359E+00  9.7588732380E+00
                       3.2517681863E+00  2.1333882402E-01  9.6761784814E+00
                       3.0554781830E+00  3.1973898662E+00  6.2842032956E+00
                       4.4426532212E-01  6.9701176126E+00  2.6110218249E-02
                       1.3488391510E-01  9.5544099898E+00  3.5788095255E+00
                       3.3010635185E+00  6.7015722836E+00  3.4404224936E+00
                       3.4614978200E+00  9.7127198939E+00 -1.7686090206E-02
                      -2.3229188687E-01  6.2774371126E+00  6.6065236985E+00
                      -5.3704845257E-02  9.4898064891E+00  9.2955463900E+00
                       3.1290964221E+00  6.8646028474E+00  9.6446245345E+00
                       2.7418353884E+00  9.7407659735E+00  6.6354813086E+00
                       6.6912777179E+00 -1.4373323581E-01 -2.0213928337E-01
                       6.3624068302E+00  3.1134470615E+00  3.3333596805E+00
                       9.5029200167E+00 -2.6838509984E-01  2.9803579504E+00
                       9.4323807248E+00  3.2871448313E+00  1.1954842088E-01
                       6.4459442291E+00 -3.2318558885E-01  6.4451794437E+00
                       6.6656933720E+00  3.0192243535E+00  9.5447026062E+00
                       9.5100053607E+00 -1.0543458557E-01  9.3837042719E+00
                       9.9461879762E+00  3.1686442482E+00  6.5442495819E+00
                       6.0878360713E+00  6.4803766855E+00 -6.1433162816E-01
                       6.0994165026E+00  9.5006858404E+00  3.5874194798E+00
                       9.5783942717E+00  6.2744573684E+00  3.0656370679E+00
                       9.6822005757E+00  9.6264835587E+00 -9.5162174275E-02
                       6.4245614234E+00  6.2364024747E+00  6.4761477110E+00
                       6.2341836372E+00  9.6315167029E+00  9.2212865659E+00
                       9.6115015595E+00  6.3507757058E+00  9.8439028688E+00
                       9.7307924265E+00  9.2742814821E+00  6.4010271273E+00
             xred     -1.1738480221E-02 -1.5780878434E-02 -1.6463033475E-02
                       3.9495017060E-03  2.4141604056E-01  2.4733571866E-01
                       2.5171142788E-01  1.4145500001E-02  2.5005662196E-01
                       2.4625304054E-01  2.5184577245E-01  2.1773389333E-02
                      -3.3625778555E-03  1.2109644137E-02  4.9308365916E-01
                       1.9073526763E-02  2.6715676314E-01  7.6181680235E-01
                       2.5384607231E-01  1.6654084623E-02  7.5536131783E-01
                       2.3852288704E-01  2.4960108245E-01  4.9057012456E-01
                       3.4681133655E-02  5.4411534837E-01  2.0382684035E-03
                       1.0529579633E-02  7.4585558078E-01  2.7937623150E-01
                       2.5769426374E-01  5.2315162245E-01  2.6857318452E-01
                       2.7021840906E-01  7.5821388711E-01 -1.3806471667E-03
                      -1.8133636758E-02  4.9004192917E-01  5.1573174852E-01
                      -4.1924157109E-03  7.4081237229E-01  7.2564764949E-01
                       2.4426982218E-01  5.3587844242E-01  7.5289809012E-01
                       2.1403867201E-01  7.6040327662E-01  5.1799229575E-01
                       5.2234798735E-01 -1.1220393115E-02 -1.5779803542E-02
                       4.9667500626E-01  2.4304817029E-01  2.6021543173E-01
                       7.4183606688E-01 -2.0951217786E-02  2.3265870027E-01
                       7.3632948671E-01  2.5660771517E-01  9.3324294209E-03
                       5.0319627081E-01 -2.5229163845E-02  5.0313656860E-01
                       5.2035077065E-01  2.3569276764E-01  7.4509778347E-01
                       7.4238917726E-01 -8.2306468045E-03  7.3252960749E-01
                       7.7643934240E-01  2.4735708417E-01  5.1087038110E-01
                       4.7524091111E-01  5.0588420652E-01 -4.7957191894E-02
                       4.7614492604E-01  7.4166165811E-01  2.8004835908E-01
                       7.4772789006E-01  4.8980931838E-01  2.3931593036E-01
                       7.5583142668E-01  7.5148193276E-01 -7.4287411612E-03
                       5.0152704320E-01  4.8683860068E-01  5.0555407580E-01
                       4.8666538932E-01  7.5187484020E-01  7.1985062966E-01
                       7.5031237779E-01  4.9576703402E-01  7.6845455651E-01
                       7.5962470152E-01  7.2398762546E-01  4.9968986162E-01
            znucl       13.00000

================================================================================


- Timing analysis has been suppressed with timopt=0



================================================================================

 Suggested references for the acknowledgment of ABINIT usage.

 The users of ABINIT have little formal obligations with respect to the ABINIT group
 (those specified in the GNU General Public License, http://www.gnu.org/copyleft/gpl.txt).
 However, it is common practice in the scientific literature,
 to acknowledge the efforts of people that have made the research possible.
 In this spirit, please find below suggested citations of work written by ABINIT developers,
 corresponding to implementations inside of ABINIT that you have used in the present run.
 Note also that it will be of great value to readers of publications presenting these results,
 to read papers enabling them to understand the theoretical formalism and details
 of the ABINIT implementation.
 For information on why they are suggested, see also http://www.abinit.org/about/?text=acknowledgments.

 [1] Large scale ab initio calculations based on three levels of parallelization
 F. Bottin, S. Leroux, A. Knyazev, G. Zerah, Comput. Mat. Science 42, 329, (2008).
 Comment : in case paral_kgb is non-zero. Strong suggestion to cite this paper in your publications.
 This paper is also available at http://www.arxiv.org/abs/0707.3405

 [2] ABINIT : First-principles approach of materials and nanosystem properties.
 X. Gonze, B. Amadon, P.-M. Anglade, J.-M. Beuken, F. Bottin, P. Boulanger, F. Bruneval,
 D. Caliste, R. Caracas, M. Cote, T. Deutsch, L. Genovese, Ph. Ghosez, M. Giantomassi
 S. Goedecker, D.R. Hamann, P. Hermet, F. Jollet, G. Jomard, S. Leroux, M. Mancini, S. Mazevet,
 M.J.T. Oliveira, G. Onida, Y. Pouillon, T. Rangel, G.-M. Rignanese, D. Sangalli, R. Shaltaf,
 M. Torrent, M.J. Verstraete, G. Zerah, J.W. Zwanziger
 Computer Phys. Comm. 180, 2582-2615 (2009).
 Comment : the third generic paper describing the ABINIT project.
 Note that a version of this paper, that is not formatted for Computer Phys. Comm. 
 is available at http://www.abinit.org/about/ABINIT_CPC_v10.pdf .
 The licence allows the authors to put it on the Web.

 [3] A brief introduction to the ABINIT software package.
 X. Gonze, G.-M. Rignanese, M. Verstraete, J.-M. Beuken, Y. Pouillon, R. Caracas, F. Jollet,
 M. Torrent, G. Zerah, M. Mikami, Ph. Ghosez, M. Veithen, J.-Y. Raty, V. Olevano, F. Bruneval,
 L. Reining, R. Godby, G. Onida, D.R. Hamann, and D.C. Allan.
 Z. Kristallogr. 220, 558-562 (2005).
 Comment : the second generic paper describing the ABINIT project. Note that this paper
 should be cited especially if you are using the GW part of ABINIT, as several authors
 of this part are not in the list of authors of the first or third paper.
 The .pdf of the latter paper is available at http://www.abinit.org/about/zfk_0505-06_558-562.pdf.
 Note that it should not redistributed (Copyright by Oldenburg Wissenshaftverlag,
 the licence allows the authors to put it on the Web).


 And optionally :

 [4] First-principles computation of material properties : the ABINIT software project. 
 X. Gonze, J.-M. Beuken, R. Caracas, F. Detraux, M. Fuchs, G.-M. Rignanese, L. Sindic,
 M. Verstraete, G. Zerah, F. Jollet, M. Torrent, A. Roy, M. Mikami, Ph. Ghosez, J.-Y. Raty, D.C. Allan.
 Computational Materials Science 25, 478-492 (2002). http://dx.doi.org/10.1016/S0927-0256(02)00325-7
 Comment : the original paper describing the ABINIT project.

 [5] Fast radix 2, 3, 4 and 5 kernels for Fast Fourier Transformations
 on computers with overlapping multiply-add instructions.
 S. Goedecker, SIAM J. on Scientific Computing 18, 1605 (1997).
-
- Proc.   0 individual time (sec): cpu=        158.6  wall=        158.6

================================================================================

 Calculation completed.
.Delivered    1 WARNINGs and   5 COMMENTs to log file.
+Overall time at end (sec) : cpu=      22203.1  wall=      22203.1
